
                                 *****************
                                 * O   R   C   A *
                                 *****************

                                            #,                                       
                                            ###                                      
                                            ####                                     
                                            #####                                    
                                            ######                                   
                                           ########,                                 
                                     ,,################,,,,,                         
                               ,,#################################,,                 
                          ,,##########################################,,             
                       ,#########################################, ''#####,          
                    ,#############################################,,   '####,        
                  ,##################################################,,,,####,       
                ,###########''''           ''''###############################       
              ,#####''   ,,,,##########,,,,          '''####'''          '####       
            ,##' ,,,,###########################,,,                        '##       
           ' ,,###''''                  '''############,,,                           
         ,,##''                                '''############,,,,        ,,,,,,###''
      ,#''                                            '''#######################'''  
     '                                                          ''''####''''         
             ,#######,   #######,   ,#######,      ##                                
            ,#'     '#,  ##    ##  ,#'     '#,    #''#        ,####,    ,#,          
            ##       ##  ##   ,#'  ##            #'  '#       #'       ,# #          
            ##       ##  #######   ##           ,######,      #####,      #          
            '#,     ,#'  ##    ##  '#,     ,#' ,#      #,     #,   #      #          
             '#######'   ##     ##  '#######'  #'      '#     '####' #    #          



                #########################################################
                #                        -***-                          #
                #          Department of theory and spectroscopy        #
                #                                                       #
                #                      Frank Neese                      #
                #                                                       #
                #     Directorship, Architecture, Infrastructure        #
                #                    SHARK, DRIVERS                     #
                #        Core code/Algorithms in most modules           #
                #                                                       #
                #        Max Planck Institute fuer Kohlenforschung      #
                #                Kaiser Wilhelm Platz 1                 #
                #                 D-45470 Muelheim/Ruhr                 #
                #                      Germany                          #
                #                                                       #
                #                  All rights reserved                  #
                #                        -***-                          #
                #########################################################


                         Program Version 6.1.0  -  RELEASE   -
                                (GIT: $679e74b$)
                          ($2025-06-10 18:02:51 +0200$)


 With contributions from (in alphabetic order):
[Max-Planck-Institut fuer Kohlenforschung]                               
  Daniel Aravena         : Magnetic Suceptibility                        
  Michael Atanasov       : Ab Initio Ligand Field Theory (pilot matlab implementation)
  Alexander A. Auer      : GIAO ZORA, VPT2 properties, NMR spectrum      
  Ute Becker             : All parallelization in ORCA, NUMFREQ, NUMCALC 
  Giovanni Bistoni       : ED, misc. LED, open-shell LED, HFLD           
  Dmytro Bykov           : pre 5.0 version of the SCF Hessian            
  Marcos Casanova-Páez   : Triplet and SCS-CIS(D). UHF-(DLPNO)-IP/EA/STEOM-CCSD. UHF-CVS-IP/STEOM-CCSD   
  Vijay G. Chilkuri      : MRCI spin determinant printing, contributions to CSF-ICE 
  Pauline Colinet        : FMM embedding                                 
  Dipayan Datta          : RHF DLPNO-CCSD density                        
  Achintya Kumar Dutta   : EOM-CC, STEOM-CC                              
  Nicolas Foglia         : Exact transition moments, OPA infrastructure, MCD improvements    
  Dmitry Ganyushin       : Spin-Orbit,Spin-Spin,Magnetic field MRCI      
  Miquel Garcia-Rates    : C-PCM and meta-GGA Hessian, CCSD/C-PCM, Gaussian charge scheme 
  Tiago L. C. Gouveia    : GS-ROHF, GS-ROCIS                             
  Yang Guo               : DLPNO-NEVPT2, F12-NEVPT2, CIM, IAO-localization        
  Andreas Hansen         : Spin unrestricted coupled pair/coupled cluster methods 
  Ingolf Harden          : AUTO-CI MPn and infrastructure                
  Benjamin Helmich-Paris : MC-RPA, TRAH-(SCF,CASSCF), AVAS, COSX integrals, SCF dyn. polar., MC-PDFT, srDFT 
  Lee Huntington         : MR-EOM, pCC                                   
  Robert Izsak           : Overlap fitted RIJCOSX, COSX-SCS-MP3, EOM     
  Riya Kayal             : Wick's Theorem for AUTO-CI, AUTO-CI UHF-CCSDT 
  Emily Kempfer          : AUTO-CI RHF CISDT and CCSDT, approximate NEVPT4
  Christian Kollmar      : KDIIS, OOCD, Brueckner-CCSD(T), CCSD density, CASPT2, CASPT2-K, improved NEVPT2 
  Axel Koslowski         : Symmetry handling                             
  Simone Kossmann        : meta-GGA functionals, TD-DFT gradient, OOMP2, (MP2 Hessian; deprecated post 5.0) 
  Lucas Lang             : DCDCAS, Hyperfine gauge corrections, ICE-SOC+SSC
  Marvin Lechner         : AUTO-CI (C++ implementation), FIC-MRCC        
  Spencer Leger          : CASSCF response                               
  Dagmar Lenk            : GEPOL surface, SMD, ORCA-2-JSON               
  Dimitrios Liakos       : Extrapolation schemes; Compound Job, Property file
  Dimitrios Manganas     : Further ROCIS development; embedding schemes. LFT, Crystal Embedding 
  Dimitrios Pantazis     : SARC Basis sets                               
  Anastasios Papadopoulos: AUTO-CI, single reference methods and gradients 
  Taras Petrenko         : pre 6.0 DFT Hessian and TD-DFT gradient,  ECA, NRVS 
  Petra Pikulova         : Analytic Raman intensities                    
  Peter Pinski           : DLPNO-MP2, DLPNO-MP2 Gradient                 
  Shashank Vittal Rao    : ES-AILFT, MagRelax                            
  Christoph Reimann      : Effective Core Potentials                     
  Marius Retegan         : Local ZFS, SOC                                
  Christoph Riplinger    : Optimizer, TS searches, QM/MM, DLPNO-CCSD(T), (RO)-DLPNO pert. Triples 
  Michael Roemelt        : Original ROCIS implementation, recursive CI coupling coefficients
  Masaaki Saitow         : Open-shell DLPNO-CCSD energy and density      
  Barbara Sandhoefer     : DKH picture change effects                    
  Yorick L. A. Schmerwitz: GMF and freeze-and-release deltaSCF, NEB S-IDPP initial path                    
  Kantharuban Sivalingam : CASSCF convergence/infrastructure, NEVPT2, NEVPT3, NEVPT4(SD), FIC-MRCI and CEPA variants
  Bernardo de Souza      : ESD, SOC TD-DFT                               
  Georgi L. Stoychev     : AutoAux, RI-MP2 NMR, DLPNO-MP2 response, X2C  
  Van Anh Tran           : RI-MP2 g-tensors                              
  Willem Van den Heuvel  : Paramagnetic NMR                              
  Zikuan Wang            : NOTCH, Electric field optimization            
  Frank Wennmohs         : Technical directorship and infrastructure     
  Hang Xu                : AUTO-CI-Response properties                   
                                                                         
[FACCTs GmbH]                                                            
  Markus Bursch, Nicolas Foglia, Miquel Garcia-Rates, Ingolf Harden, Hagen Neugebauer, Anastasios Papadopoulos, 
  Christoph Riplinger, Bernardo de Souza, Georgi L. Stoychev                                                    
                                                                 
  APM, various basis sets, CI-OPT, improved COSX, DLPNO-Multilevel,           
  DOCKER, DRACO, updates on ESD, Fragmentator, GOAT, IRC, LR-CPCM, L-BFGS, MBIS, meta-GGA TD-DFT gradient, ML-optimized integration grids, 
  MM, NACMEs, nearIR, NEB, NEB-TS, NL-DFT gradient (VV10), 2- and 3-layer-ONIOM, interface openCOSMO-RS, QMMM,   
  Crystal-QMMM, RESP, rigid body optimization, SF, symmetry and pop. for TD-DFT, various functionals, SOLVATOR                                   
                                                                         
[Other institutions]                                                     
  V. Asgeirsson          : NEB                                           
  Christoph Bannwarth    : sTDA-DFT, sTD-DFT, PBEh-3c, B97-3c, D3        
  Giovanni Bistoni       : ETS/NOCV, ADLD/ADEX, COVALED                  
  Martin Brehm           : Molecular dynamics                            
  Ronald Cardenas        : ETS/NOCV                                      
  Martina Colucci        : COVALED                                       
  Sebastian Ehlert       : rSCAN, r2SCAN, r2SCAN-3c, D4, dhf basis sets  
  Marvin Friede          : D4 for Fr, Ra, Ac-Lr                          
  Lars Goerigk           : TD-DFT with DH, B97 family of functionals     
  Stefan Grimme          : VdW corrections, initial TS optimization, DFT functionals, gCP, sTDA/sTD-DF 
  Waldemar Hujo          : DFT-NL                                        
  H. Jonsson             : NEB                                           
  Holger Kruse           : gCP                                           
  Marcel Mueller         : wB97X-3c, vDZP basis set                      
  Hagen Neugebauer       : wr2SCAN, Native XTB                           
  Gianluca Regni         : ADLD/ADEX                                     
  Tobias Risthaus        : pre 6.0 range-separated hybrid DFT and stability analysis
  Lukas Wittmann         : regularized MP2, r2SCAN double-hybrids, wr2SCAN        
                                                                         
We gratefully acknowledge several colleagues who have allowed us to      
interface, adapt or use parts of their codes:                            
  Ed Valeev, F. Pavosevic, A. Kumar             : LibInt (2-el integral package), F12 methods 
  Garnet Chan, S. Sharma, J. Yang, R. Olivares  : DMRG                   
  Ulf Ekstrom                                   : XCFun DFT Library      
  Mihaly Kallay                                 : mrcc  (arbitrary order and MRCC methods)
  Frank Weinhold                                : gennbo (NPA and NBO analysis)           
  Simon Mueller                                 : openCOSMO-RS                            
  Christopher J. Cramer and Donald G. Truhlar   : smd solvation model                     
  S Lehtola, MJT Oliveira, MAL Marques          : LibXC Library                           
  Liviu Ungur et al                             : ANISO software                          


 Your calculation uses the libint2 library for the computation of 2-el integrals
 For citations please refer to: http://libint.valeyev.net

 Your ORCA version has been built with support for libXC version: 7.0.0
 For citations please refer to: https://libxc.gitlab.io

 This ORCA versions uses:
   CBLAS   interface :  Fast vector & matrix operations
   LAPACKE interface :  Fast linear algebra routines
   SCALAPACK package :  Parallel linear algebra routines
   Shared memory     :  Shared parallel matrices
   BLAS/LAPACK       :  OpenBLAS 0.3.29  USE64BITINT DYNAMIC_ARCH NO_AFFINITY SkylakeX SINGLE_THREADED
        Core in use  :  SkylakeX
   Copyright (c) 2011-2014, The OpenBLAS Project


  ***********************************
  * Starting time: Sun Feb  8 11:33:25 2026
  * Host name:     node2322.oscar.ccv.brown.edu
  * Process ID:    4127420
  * Working dir.:  /oscar/scratch/niyer15/freq
  ***********************************

NOTE: MaxCore=7000 MB was set to SCF,MP2,MDCI,CIPSI,MRCI,RASCI and CIS
      => If you want to overwrite this, your respective input block should be placed after the MaxCore statement
Warning: RI and relativity are on but no J-basis has been assigned. Assigning SARC/J (nothing to worry about!)
================================================================================

----- Orbital basis set information -----
The basis set includes element-specific modifications.

Your calculation utilizes the basis: SARC-ZORA-TZVP 
   Rb-Xe:  J. D. Rolfes, F. Neese and D. A. Pantazis, J. Comput. Chem. 41, 1842 (2020).
   La-Lu:  D. A. Pantazis and F. Neese, J. Chem. Theory Comput. 5, 2229 (2009).
   Hf-Hg:  D. A. Pantazis, X. Y. Chen, C. R. Landis and F. Neese, J. Chem. Theory Comput. 4, 908 (2008).
   Tl-Rn:  D. A. Pantazis and F. Neese, Theor. Chem. Acc. 131, 1292 (2012).
   Ac-Lr:  D. A. Pantazis and F. Neese, J. Chem. Theory Comput. 7, 677 (2011).

Your calculation utilizes the basis: ZORA-def2-TZVP 
   Exponents from def2-TZVP [F. Weigend and R. Ahlrichs, Phys. Chem. Chem. Phys. 7, 3297 (2005)],
   recontracted for ZORA by D. A. Pantazis.

Your calculation utilizes the basis: ZORA-def2-SVP 
   Exponents from def2-SVP [F. Weigend and R. Ahlrichs, Phys. Chem. Chem. Phys. 7, 3297 (2005)],
   recontracted for ZORA by D. A. Pantazis.

----- AuxJ basis set information -----
Your calculation utilizes the auxiliary basis: SARC/J 
   decontracted def2/J up to Kr:
   F. Weigend, Phys. Chem. Chem. Phys. 8, 1057 (2006)
   and SARC auxiliary basis sets beyond Kr:
   D. A. Pantazis and F. Neese, J. Chem. Theory Comput. 5, 2229 (2009).
   D. A. Pantazis, X. Y. Chen, C. R. Landis and F. Neese, J. Chem. Theory Comput. 4, 908 (2008).
   D. A. Pantazis and F. Neese, Theor. Chem. Acc. 131, 1292 (2012).
   D. A. Pantazis and F. Neese, J. Chem. Theory Comput. 7, 677 (2011).

================================================================================
                                        WARNINGS
                       Please study these warnings very carefully!
================================================================================


WARNING: In scalar relativistic gradient/hessian runs we need the one-center approximation
  ===> : %rel OneCenter is turned on

WARNING: Relativistic property calculations require picture change transformations!
  ===> : Setting %rel PictureChange = 1

WARNING: Picture change corrections for electric properties are not implemented for ZORA(MP),
         however, the errors are usually negligible.

WARNING: Geometry Optimization
  ===> : Switching off AutoStart
         For restart on a previous wavefunction, please use MOREAD

================================================================================
                                       INPUT FILE
================================================================================
NAME = eu_freq.inp
|  1> ! PBE UKS ZORA TightSCF Freq Opt
|  2> 
|  3> %pal nprocs 8 end  # ← Use more cores if available, Freq is parallelizable
|  4> %maxcore 7000
|  5> 
|  6> %basis
|  7>   newgto Eu "SARC-ZORA-TZVP" end
|  8>   newgto O  "ZORA-def2-TZVP" end
|  9>   newgto N  "ZORA-def2-TZVP" end
| 10>   newgto C  "ZORA-def2-TZVP" end
| 11>   newgto H  "ZORA-def2-SVP"  end
| 12> end
| 13> 
| 14> * xyz 0 7
| 15> Eu         9.31801        7.81050        9.76860
| 16> O         10.06389        8.34590       12.09962
| 17> O          9.51794        5.95367        8.21138
| 18> O         11.76350        7.94727        9.52027
| 19> O          7.58411        6.93403        8.22922
| 20> O         11.11104        6.15579       10.51222
| 21> O         10.15754       10.04316       10.77701
| 22> O         13.22717        6.48516       10.19392
| 23> O         10.72612       10.27177       12.86244
| 24> N          7.97805        9.93075        9.10867
| 25> N          7.16564        8.32304       11.09806
| 26> N          7.19618        6.17142       11.92126
| 27> N         10.33661        9.58003       11.93360
| 28> O          8.04019        5.45482        6.69121
| 29> N          9.25058       10.11726        7.20983
| 30> N          8.35521        6.09430        7.67768
| 31> N         12.07890        6.84708       10.07592
| 32> N          9.76338        8.89008        7.50481
| 33> N          8.29199        5.93747       11.13373
| 34> C          6.62512        9.56650       11.03906
| 35> C          7.09160       10.44202       10.00870
| 36> C          6.56765       11.75062        9.91814
| 37> C          5.61309        9.99694       11.92400
| 38> C          5.13438        9.05694       12.86382
| 39> H          4.46320        9.30798       13.48789
| 40> C          6.65635        7.46212       11.95281
| 41> C         10.49166        9.59421        5.48523
| 42> H         10.94367        9.60653        4.65013
| 43> C          5.13342       11.35260       11.82247
| 44> H          4.48017       11.66505       12.43662
| 45> C          5.59776       12.18296       10.86894
| 46> H          5.27265       13.07523       10.83036
| 47> C          8.35028       10.72669        8.11534
| 48> C          9.68597       10.55983        5.99973
| 49> H          9.46853       11.38956        5.59148
| 50> C          7.02918       12.55224        8.85073
| 51> H          6.73587       13.45239        8.77342
| 52> C         10.51551        8.56703        6.45523
| 53> H         11.00235        7.75544        6.37007
| 54> C          7.89798       12.03627        7.92464
| 55> H          8.18338       12.55039        7.17882
| 56> C          5.63668        7.78689       12.87616
| 57> H          5.30939        7.13911       13.48895
| 58> C          6.74336        5.02632       12.49475
| 59> H          5.99180        4.94288       13.06942
| 60> C          8.51731        4.63069       11.25447
| 61> H          9.22917        4.16818       10.82831
| 62> C          7.56691        4.02174       12.09138
| 63> H          7.51114        3.10259       12.32664
| 64> *
| 65> 
| 66>                          ****END OF INPUT****
================================================================================

                       *****************************
                       * Geometry Optimization Run *
                       *****************************

Geometry optimization settings:
Update method            Update   .... BFGS
Choice of coordinates    CoordSys .... (2022) Redundant Internals
Initial Hessian          InHess   .... Almloef's Model
Max. no of cycles        MaxIter  .... 147

Convergence Tolerances:
Energy Change            TolE     ....  5.0000e-06 Eh
Max. Gradient            TolMAXG  ....  3.0000e-04 Eh/bohr
RMS Gradient             TolRMSG  ....  1.0000e-04 Eh/bohr
Max. Displacement        TolMAXD  ....  4.0000e-03 bohr
RMS Displacement         TolRMSD  ....  2.0000e-03 bohr
Strict Convergence                .... False

------------------------------------------------------------------------------
                        ORCA OPTIMIZATION COORDINATE SETUP
------------------------------------------------------------------------------

The optimization will be done in redundant internal coordinates (2022)
Making redundant internal coordinates   ...  (2022 redundants) done
Evaluating the initial hessian          ...  (Almloef) done
Evaluating the coordinates              ...  done
Calculating the B-matrix                .... done
Calculating the G-matrix                .... done
The number of degrees of freedom        ....  621

    -----------------------------------------------------------------
                    Redundant Internal Coordinates


    -----------------------------------------------------------------
         Definition                    Initial Value    Approx d2E/dq
    -----------------------------------------------------------------
      1. B(O   1,Eu  0)                  2.5053         0.021647   
      2. B(O   2,Eu  0)                  2.4316         0.028379   
      3. B(O   3,O   1)                  3.1146         0.010000   
      4. B(O   3,Eu  0)                  2.4619         0.025394   
      5. B(O   4,Eu  0)                  2.4788         0.023865   
      6. B(O   5,Eu  0)                  2.5507         0.018324   
      7. B(O   5,O   2)                  2.8058         0.010000   
      8. B(O   5,O   1)                  2.9005         0.010000   
      9. B(O   6,O   3)                  2.9243         0.010000   
     10. B(O   6,Eu  0)                  2.5897         0.015878   
     11. B(N   9,O   4)                  3.1478         0.010000   
     12. B(N   9,Eu  0)                  2.5935         0.015655   
     13. B(N   9,O   6)                  2.7470         0.010000   
     14. B(N  10,O   4)                  3.2148         0.010000   
     15. B(N  10,O   1)                  3.0665         0.010000   
     16. B(N  10,Eu  0)                  2.5813         0.016378   
     17. B(N  12,Eu  0)                  2.9759         0.010000   
     18. B(N  12,O   6)                  1.2587         0.811965   
     19. B(N  12,O   8)                  1.2219         0.929508   
     20. B(N  12,O   3)                  3.2444         0.010000   
     21. B(N  12,O   1)                  1.2748         0.765365   
     22. B(N  15,Eu  0)                  2.8713         0.010000   
     23. B(N  15,O  13)                  1.2171         0.945992   
     24. B(N  15,O   2)                  1.2871         0.731523   
     25. B(N  15,O   4)                  1.2665         0.789045   
     26. B(N  16,O   1)                  3.2252         0.010000   
     27. B(N  16,O   3)                  1.2723         0.772434   
     28. B(N  16,Eu  0)                  2.9403         0.010000   
     29. B(N  16,O   7)                  1.2097         0.971919   
     30. B(N  16,O   5)                  1.2669         0.787839   
     31. B(N  17,O   2)                  3.0302         0.010000   
     32. B(N  17,N  14)                  1.3623         0.554824   
     33. B(N  17,N  15)                  3.1352         0.010000   
     34. B(N  17,O   3)                  2.9919         0.010000   
     35. B(N  17,O   4)                  3.0166         0.010000   
     36. B(N  17,Eu  0)                  2.5473         0.018556   
     37. B(N  18,N  11)                  1.3696         0.540255   
     38. B(N  18,O   2)                  3.1691         0.010000   
     39. B(N  18,O   4)                  3.1513         0.010000   
     40. B(N  18,O   1)                  3.1422         0.010000   
     41. B(N  18,O   5)                  2.8950         0.010000   
     42. B(N  18,Eu  0)                  2.5347         0.019435   
     43. B(C  19,N  10)                  1.3571         0.631390   
     44. B(C  20,C  19)                  1.4303         0.538803   
     45. B(C  20,N   9)                  1.3628         0.618385   
     46. B(C  20,O   6)                  3.1858         0.010000   
     47. B(C  21,C  20)                  1.4125         0.575228   
     48. B(C  22,C  19)                  1.4116         0.577144   
     49. B(C  23,C  22)                  1.4128         0.574580   
     50. B(H  24,C  23)                  0.9502         0.601717   
     51. B(C  25,N  10)                  1.3157         0.735125   
     52. B(C  25,N  11)                  1.3994         0.540604   
     53. B(H  27,C  26)                  0.9497         0.603010   
     54. B(C  28,C  22)                  1.4416         0.516912   
     55. B(H  29,C  28)                  0.9495         0.603379   
     56. B(C  30,C  28)                  1.3470         0.731796   
     57. B(C  30,C  21)                  1.4254         0.548704   
     58. B(H  31,C  30)                  0.9504         0.601294   
     59. B(C  32,N  14)                  1.4149         0.510713   
     60. B(C  32,N   9)                  1.3262         0.707425   
     61. B(C  32,O   6)                  3.2891         0.010000   
     62. B(C  33,C  26)                  1.3588         0.700739   
     63. B(C  33,N  14)                  1.3601         0.624649   
     64. B(H  34,C  33)                  0.9499         0.602377   
     65. B(C  35,C  21)                  1.4124         0.575370   
     66. B(H  36,C  35)                  0.9499         0.602519   
     67. B(C  37,C  26)                  1.4130         0.574175   
     68. B(C  37,N  17)                  1.3310         0.694921   
     69. B(H  38,O   3)                  3.2465         0.010000   
     70. B(H  38,O   2)                  2.9733         0.010000   
     71. B(H  38,C  37)                  0.9502         0.601744   
     72. B(C  39,C  35)                  1.3706         0.670827   
     73. B(C  39,C  32)                  1.3985         0.605477   
     74. B(H  40,C  39)                  0.9497         0.602820   
     75. B(C  41,C  25)                  1.4134         0.573273   
     76. B(C  41,C  23)                  1.3658         0.682817   
     77. B(H  42,C  41)                  0.9499         0.602552   
     78. B(C  43,N  11)                  1.3584         0.628531   
     79. B(H  44,C  43)                  0.9498         0.602784   
     80. B(C  45,N  18)                  1.3315         0.693635   
     81. B(C  45,O   5)                  3.0991         0.010000   
     82. B(H  46,C  45)                  0.9499         0.602525   
     83. B(H  46,O   2)                  3.1811         0.010000   
     84. B(H  46,O   5)                  2.7553         0.010000   
     85. B(C  47,C  45)                  1.4052         0.590933   
     86. B(C  47,C  43)                  1.3602         0.697100   
     87. B(H  48,C  47)                  0.9504         0.601336   
     88. A(O   5,Eu  0,N  15)           93.4550         0.148480   
     89. A(O   1,Eu  0,N  15)          154.8392         0.150766   
     90. A(N  10,Eu  0,N  18)           62.0824         0.165716   
     91. A(O   3,Eu  0,N   9)          116.2400         0.169675   
     92. A(O   3,Eu  0,N  15)          107.0281         0.153039   
     93. A(N  12,Eu  0,N  18)          100.7271         0.144255   
     94. A(O   5,Eu  0,N  12)           86.1607         0.143524   
     95. A(O   1,Eu  0,N  10)           74.1337         0.167611   
     96. A(N  10,Eu  0,N  16)          142.5804         0.143755   
     97. A(N   9,Eu  0,N  12)           82.8683         0.141616   
     98. A(O   4,Eu  0,N  15)           26.0848         0.152145   
     99. A(N  16,Eu  0,N  18)           94.6848         0.145918   
    100. A(O   2,Eu  0,O   3)           84.0391         0.181302   
    101. A(O   6,Eu  0,N  18)          123.9586         0.165180   
    102. A(O   1,Eu  0,O   5)           70.0073         0.169635   
    103. A(O   4,Eu  0,N  16)          127.2921         0.148625   
    104. A(O   5,Eu  0,N  10)          124.3898         0.164701   
    105. A(N   9,Eu  0,N  17)           61.1658         0.164145   
    106. A(O   2,Eu  0,N  17)           74.9373         0.174975   
    107. A(O   3,Eu  0,O   5)           50.7404         0.172601   
    108. A(N  10,Eu  0,N  15)          102.3652         0.146987   
    109. A(O   3,Eu  0,N  17)           73.3294         0.172839   
    110. A(O   6,Eu  0,N  16)           86.4101         0.143372   
    111. A(O   4,Eu  0,N  18)           77.8794         0.172540   
    112. A(O   3,Eu  0,N  16)           25.3109         0.149469   
    113. A(O   2,Eu  0,O   5)           68.5012         0.174731   
    114. A(O   1,Eu  0,N  16)           72.1346         0.147323   
    115. A(O   2,Eu  0,O   6)          151.7707         0.171996   
    116. A(O   4,Eu  0,N  12)          154.3534         0.146884   
    117. A(O   2,Eu  0,N  16)           74.9014         0.151010   
    118. A(O   4,Eu  0,O   6)          140.6632         0.168804   
    119. A(N  12,Eu  0,N  17)          109.5537         0.143679   
    120. A(O   4,Eu  0,N   9)           76.6820         0.168549   
    121. A(N  15,Eu  0,N  16)          101.2523         0.132022   
    122. A(N   9,Eu  0,N  10)           62.4784         0.162051   
    123. A(N  10,Eu  0,N  12)           78.0324         0.142156   
    124. A(O   1,Eu  0,N  17)          133.1771         0.169864   
    125. A(O   3,Eu  0,N  12)           72.5631         0.147703   
    126. A(N  15,Eu  0,N  18)           79.3262         0.149277   
    127. A(O   3,Eu  0,O   6)           70.6922         0.169934   
    128. A(O   3,Eu  0,N  18)          119.8336         0.173722   
    129. A(O   2,Eu  0,O   4)           52.3957         0.180014   
    130. A(O   2,Eu  0,N  18)           79.2751         0.175881   
    131. A(O   5,Eu  0,N  18)           69.3993         0.167691   
    132. A(N  16,Eu  0,N  17)           93.8752         0.145324   
    133. A(O   5,Eu  0,N  17)          114.2758         0.166871   
    134. A(O   6,Eu  0,N  15)          155.1727         0.146582   
    135. A(N  15,Eu  0,N  17)           70.4137         0.148649   
    136. A(O   2,Eu  0,N  15)           26.4644         0.154670   
    137. A(O   2,Eu  0,N   9)          120.2515         0.171730   
    138. A(N  12,Eu  0,N  16)           78.3106         0.128438   
    139. A(O   1,Eu  0,O   6)           49.9796         0.167062   
    140. A(O   5,Eu  0,O   6)          102.5848         0.164172   
    141. A(O   4,Eu  0,O   5)          116.3202         0.171435   
    142. A(O   6,Eu  0,N   9)           64.0087         0.161541   
    143. A(O   5,Eu  0,N   9)          165.4010         0.163932   
    144. A(O   1,Eu  0,N  12)           25.0591         0.145620   
    145. A(O   5,Eu  0,N  16)           25.4295         0.145165   
    146. A(O   4,Eu  0,N  17)           73.7546         0.171669   
    147. A(O   1,Eu  0,O   2)          137.2703         0.178027   
    148. A(O   1,Eu  0,O   4)          149.5009         0.174603   
    149. A(O   4,Eu  0,N  10)           78.8598         0.169366   
    150. A(N  17,Eu  0,N  18)          149.6106         0.167915   
    151. A(O   1,Eu  0,O   3)           77.6574         0.175815   
    152. A(O   2,Eu  0,N  12)          153.1033         0.149199   
    153. A(O   2,Eu  0,N  10)          123.3687         0.172580   
    154. A(O   3,Eu  0,O   4)          130.6810         0.177753   
    155. A(O   3,Eu  0,N  10)          150.3683         0.170503   
    156. A(N   9,Eu  0,N  18)          122.1418         0.164936   
    157. A(O   6,Eu  0,N  10)           84.1788         0.162286   
    158. A(N   9,Eu  0,N  16)          141.2239         0.143198   
    159. A(N   9,Eu  0,N  15)           97.4751         0.146398   
    160. A(O   1,Eu  0,N   9)          102.4659         0.166812   
    161. A(O   1,Eu  0,N  18)           77.1337         0.170716   
    162. A(N  10,Eu  0,N  17)          121.2896         0.164916   
    163. A(O   6,Eu  0,N  17)           85.6408         0.164386   
    164. A(O   6,Eu  0,N  12)           24.9206         0.141785   
    165. A(O   5,O   1,N  16)           23.0957         0.107768   
    166. A(N  10,O   1,N  12)           99.6064         0.171756   
    167. A(N  12,O   1,N  16)          103.5637         0.161525   
    168. A(O   3,O   1,N  16)           23.0678         0.104708   
    169. A(O   5,O   1,N  12)          125.6265         0.184005   
    170. A(O   5,O   1,N  10)           99.0232         0.110416   
    171. A(O   3,O   1,N  10)          104.1412         0.106924   
    172. A(Eu  0,O   1,O   3)           50.5486         0.126974   
    173. A(Eu  0,O   1,N  10)           54.0652         0.128522   
    174. A(Eu  0,O   1,N  12)           98.5928         0.264331   
    175. A(N  10,O   1,N  18)           50.2764         0.106518   
    176. A(O   5,O   1,N  18)           57.0840         0.109110   
    177. A(O   3,O   1,N  18)           87.4237         0.105831   
    178. A(O   3,O   1,N  12)           84.2210         0.168514   
    179. A(O   3,O   1,O   5)           41.6789         0.109577   
    180. A(N  16,O   1,N  18)           78.6520         0.104352   
    181. A(Eu  0,O   1,N  16)           60.1908         0.123636   
    182. A(Eu  0,O   1,N  18)           51.8515         0.126113   
    183. A(N  12,O   1,N  18)          145.3528         0.166712   
    184. A(N  10,O   1,N  16)          112.4628         0.105348   
    185. A(Eu  0,O   1,O   5)           55.7304         0.134372   
    186. A(N  15,O   2,N  17)           82.5651         0.173426   
    187. A(N  15,O   2,N  18)           91.9176         0.164214   
    188. A(Eu  0,O   2,O   5)           57.7597         0.141191   
    189. A(O   5,O   2,N  17)           94.3250         0.112880   
    190. A(O   5,O   2,N  15)          147.6816         0.190739   
    191. A(N  17,O   2,N  18)          104.5549         0.106654   
    192. A(O   5,O   2,N  18)           57.5776         0.110275   
    193. A(Eu  0,O   2,N  18)           51.7975         0.127584   
    194. A(Eu  0,O   2,N  15)           96.1907         0.273515   
    195. A(Eu  0,O   2,N  17)           54.2674         0.132309   
    196. A(O   6,O   3,N  16)          124.6277         0.182341   
    197. A(N  12,O   3,N  17)           92.7791         0.106120   
    198. A(O   1,O   3,N  17)           98.7858         0.108071   
    199. A(O   6,O   3,N  17)           72.3328         0.111341   
    200. A(Eu  0,O   3,N  17)           54.6473         0.132599   
    201. A(N  16,O   3,N  17)          137.0911         0.177236   
    202. A(N  12,O   3,N  16)          102.6710         0.160527   
    203. A(O   1,O   3,N  12)           23.0115         0.104459   
    204. A(Eu  0,O   3,N  12)           61.0563         0.124343   
    205. A(O   1,O   3,O   6)           41.6403         0.109174   
    206. A(Eu  0,O   3,N  16)           98.8681         0.271160   
    207. A(O   6,O   3,N  12)           22.7932         0.107110   
    208. A(Eu  0,O   3,O   1)           51.7941         0.128371   
    209. A(O   1,O   3,N  16)           83.3542         0.168679   
    210. A(Eu  0,O   3,O   6)           56.6971         0.135122   
    211. A(N  15,O   4,N  18)           93.1495         0.166659   
    212. A(Eu  0,O   4,N  17)           54.1635         0.131115   
    213. A(N  15,O   4,N  17)           83.4255         0.175857   
    214. A(N  17,O   4,N  18)          105.3143         0.107122   
    215. A(N   9,O   4,N  17)           50.1629         0.107173   
    216. A(N  10,O   4,N  15)          138.9708         0.162665   
    217. A(Eu  0,O   4,N   9)           53.2977         0.126763   
    218. A(N   9,O   4,N  18)           90.8848         0.105249   
    219. A(Eu  0,O   4,N  15)           94.5314         0.269485   
    220. A(Eu  0,O   4,N  18)           51.8509         0.126656   
    221. A(N   9,O   4,N  10)           49.8826         0.104413   
    222. A(N  10,O   4,N  17)           91.6143         0.106189   
    223. A(N   9,O   4,N  15)          132.5855         0.166880   
    224. A(N  10,O   4,N  18)           48.9559         0.104369   
    225. A(Eu  0,O   4,N  10)           51.9810         0.124719   
    226. A(O   1,O   5,N  16)           92.9963         0.184629   
    227. A(O   1,O   5,N  18)           65.6630         0.113698   
    228. A(O   2,O   5,N  18)           67.5254         0.115721   
    229. A(Eu  0,O   5,N  18)           55.0397         0.132894   
    230. A(N  16,O   5,N  18)          149.2060         0.185069   
    231. A(Eu  0,O   5,O   2)           53.7391         0.136271   
    232. A(O   2,O   5,N  16)          100.9919         0.192462   
    233. A(Eu  0,O   5,N  16)           94.7409         0.258951   
    234. A(O   1,O   5,O   2)          107.3492         0.115599   
    235. A(Eu  0,O   5,O   1)           54.2624         0.132693   
    236. A(O   2,O   5,C  45)           71.6847         0.112316   
    237. A(N  18,O   5,C  45)           25.3766         0.110650   
    238. A(Eu  0,O   5,C  45)           78.5065         0.127300   
    239. A(N  16,O   5,C  45)          172.0562         0.172826   
    240. A(O   1,O   5,C  45)           86.4657         0.110551   
    241. A(O   3,O   6,N  12)           93.0413         0.183402   
    242. A(Eu  0,O   6,N  12)           94.9744         0.254655   
    243. A(O   3,O   6,N   9)           98.3598         0.116386   
    244. A(Eu  0,O   6,N   9)           58.0638         0.137056   
    245. A(N   9,O   6,N  12)          130.9870         0.198390   
    246. A(N   9,O   6,C  20)           25.1916         0.111781   
    247. A(N   9,O   6,C  32)           23.2301         0.109907   
    248. A(O   3,O   6,C  32)           95.9078         0.107042   
    249. A(Eu  0,O   6,C  32)           71.6947         0.120660   
    250. A(O   3,O   6,C  20)          120.9715         0.108659   
    251. A(N  12,O   6,C  32)          153.9301         0.161068   
    252. A(C  20,O   6,C  32)           41.4109         0.104008   
    253. A(Eu  0,O   6,C  20)           72.6652         0.123498   
    254. A(Eu  0,O   6,O   3)           52.6107         0.130472   
    255. A(N  12,O   6,C  20)          113.8654         0.167528   
    256. A(C  20,N   9,C  32)          116.8767         0.438491   
    257. A(Eu  0,N   9,O   6)           57.9274         0.136902   
    258. A(O   6,N   9,C  32)          101.9844         0.195928   
    259. A(O   6,N   9,C  20)           95.7178         0.192721   
    260. A(Eu  0,N   9,C  32)          122.4267         0.250408   
    261. A(Eu  0,N   9,C  20)          118.3406         0.245567   
    262. A(O   4,N   9,O   6)          107.9340         0.111740   
    263. A(Eu  0,N   9,O   4)           50.0203         0.123325   
    264. A(O   4,N   9,C  32)          113.4046         0.165622   
    265. A(O   4,N   9,C  20)          117.4036         0.163324   
    266. A(Eu  0,N  10,O   1)           51.8011         0.126104   
    267. A(O   1,N  10,C  25)           99.1219         0.171699   
    268. A(O   1,N  10,C  19)          112.5688         0.168900   
    269. A(Eu  0,N  10,O   4)           49.1592         0.121801   
    270. A(O   4,N  10,C  25)          110.3286         0.162108   
    271. A(O   1,N  10,O   4)           99.8843         0.105491   
    272. A(Eu  0,N  10,C  25)          121.8320         0.253489   
    273. A(Eu  0,N  10,C  19)          119.4486         0.247922   
    274. A(O   4,N  10,C  19)          114.1375         0.159633   
    275. A(C  19,N  10,C  25)          118.2679         0.443207   
    276. A(N  18,N  11,C  43)          111.4375         0.416246   
    277. A(N  18,N  11,C  25)          118.6308         0.405273   
    278. A(C  25,N  11,C  43)          129.7470         0.419065   
    279. A(Eu  0,N  12,O   6)           60.1050         0.209154   
    280. A(Eu  0,N  12,O   1)           56.3481         0.207557   
    281. A(O   6,N  12,O   8)          122.3826         0.477797   
    282. A(O   1,N  12,O   8)          121.1503         0.472631   
    283. A(O   1,N  12,O   3)           72.7675         0.160378   
    284. A(Eu  0,N  12,O   3)           46.3806         0.112050   
    285. A(O   3,N  12,O   6)           64.1654         0.161340   
    286. A(O   1,N  12,O   6)          116.4528         0.461069   
    287. A(O   3,N  12,O   8)          135.2484         0.163587   
    288. A(N  17,N  14,C  32)          119.2708         0.403113   
    289. A(C  32,N  14,C  33)          129.2688         0.414386   
    290. A(N  17,N  14,C  33)          111.4244         0.417762   
    291. A(O   4,N  15,O  13)          122.9402         0.476826   
    292. A(O   2,N  15,O  13)          120.8311         0.470238   
    293. A(Eu  0,N  15,O  13)          172.3393         0.224686   
    294. A(Eu  0,N  15,O   4)           59.3838         0.219227   
    295. A(Eu  0,N  15,O   2)           57.3448         0.217015   
    296. A(Eu  0,N  15,N  17)           49.9491         0.116536   
    297. A(O  13,N  15,N  17)          122.6909         0.171005   
    298. A(O   4,N  15,N  17)           72.9150         0.167706   
    299. A(O   2,N  15,N  17)           73.4135         0.166369   
    300. A(O   2,N  15,O   4)          116.2253         0.454901   
    301. A(O   3,N  16,O   5)          115.6505         0.459307   
    302. A(Eu  0,N  16,O   5)           59.8296         0.211926   
    303. A(Eu  0,N  16,O   3)           55.8210         0.211378   
    304. A(Eu  0,N  16,O   1)           47.6746         0.113125   
    305. A(O   1,N  16,O   7)          132.1331         0.165555   
    306. A(O   5,N  16,O   7)          121.8919         0.479071   
    307. A(O   1,N  16,O   3)           73.5780         0.161676   
    308. A(O   1,N  16,O   5)           63.9081         0.162002   
    309. A(O   3,N  16,O   7)          122.4542         0.477332   
    310. A(O   2,N  17,O   4)           42.0240         0.109041   
    311. A(O   2,N  17,O   3)           65.9020         0.109457   
    312. A(Eu  0,N  17,O   2)           50.7953         0.128338   
    313. A(O   2,N  17,C  37)           89.6818         0.173157   
    314. A(O   2,N  17,N  14)          153.2423         0.168305   
    315. A(O   3,N  17,O   4)           96.7102         0.109689   
    316. A(Eu  0,N  17,O   4)           52.0819         0.128784   
    317. A(O   4,N  17,C  37)          116.1165         0.174110   
    318. A(O   4,N  17,N  14)          111.3560         0.169202   
    319. A(Eu  0,N  17,O   3)           52.0233         0.129611   
    320. A(O   2,N  17,N  15)           24.0214         0.107160   
    321. A(O   3,N  17,C  37)           94.4136         0.175879   
    322. A(O   3,N  17,N  14)          132.9497         0.170869   
    323. A(Eu  0,N  17,C  37)          134.1643         0.256063   
    324. A(Eu  0,N  17,N  14)          120.5566         0.246430   
    325. A(N  14,N  17,C  37)          105.1049         0.425791   
    326. A(O   4,N  17,N  15)           23.6595         0.107366   
    327. A(O   3,N  17,N  15)           88.9750         0.107747   
    328. A(Eu  0,N  17,N  15)           59.6372         0.125050   
    329. A(N  15,N  17,C  37)           94.6374         0.166123   
    330. A(N  14,N  17,N  15)          130.2523         0.161676   
    331. A(Eu  0,N  18,O   5)           55.5610         0.133482   
    332. A(O   5,N  18,C  45)           85.9113         0.183129   
    333. A(O   5,N  18,N  11)          152.8338         0.177206   
    334. A(Eu  0,N  18,C  45)          134.8746         0.257752   
    335. A(Eu  0,N  18,N  11)          120.4872         0.247133   
    336. A(O   1,N  18,O   2)           93.5201         0.105085   
    337. A(O   2,N  18,O   5)           54.8971         0.108755   
    338. A(Eu  0,N  18,O   2)           48.9275         0.124416   
    339. A(O   2,N  18,C  45)           91.3278         0.163943   
    340. A(O   2,N  18,N  11)          147.0226         0.159228   
    341. A(O   1,N  18,O   4)           99.6486         0.105326   
    342. A(O   4,N  18,O   5)           89.8292         0.109050   
    343. A(Eu  0,N  18,O   4)           50.2698         0.124946   
    344. A(O   4,N  18,C  45)          115.5913         0.165065   
    345. A(O   4,N  18,N  11)          107.2320         0.160279   
    346. A(O   2,N  18,O   4)           40.1244         0.104964   
    347. A(O   1,N  18,O   5)           57.2530         0.109203   
    348. A(Eu  0,N  18,O   1)           51.0148         0.125219   
    349. A(O   1,N  18,C  45)          128.9717         0.165643   
    350. A(O   1,N  18,N  11)           98.2505         0.160821   
    351. A(N  11,N  18,C  45)          104.5304         0.423629   
    352. A(C  20,C  19,C  22)          119.9191         0.417900   
    353. A(N  10,C  19,C  22)          122.5256         0.427113   
    354. A(N  10,C  19,C  20)          117.5336         0.421893   
    355. A(C  19,C  20,C  21)          119.4920         0.417652   
    356. A(N   9,C  20,C  21)          123.1273         0.425271   
    357. A(N   9,C  20,C  19)          117.2743         0.420329   
    358. A(O   6,C  20,C  21)          119.2376         0.162857   
    359. A(O   6,C  20,C  19)           93.6408         0.161771   
    360. A(O   6,C  20,N   9)           59.0906         0.163459   
    361. A(C  20,C  21,C  30)          119.3833         0.419010   
    362. A(C  30,C  21,C  35)          123.6635         0.419028   
    363. A(C  20,C  21,C  35)          116.9390         0.422573   
    364. A(C  23,C  22,C  28)          124.0410         0.414498   
    365. A(C  19,C  22,C  28)          118.7607         0.414826   
    366. A(C  19,C  22,C  23)          117.1982         0.422721   
    367. A(H  24,C  23,C  41)          119.9659         0.391975   
    368. A(C  22,C  23,C  41)          120.0056         0.435665   
    369. A(C  22,C  23,H  24)          120.0286         0.380368   
    370. A(N  11,C  25,C  41)          120.3279         0.414943   
    371. A(N  10,C  25,C  41)          123.5926         0.438425   
    372. A(N  10,C  25,N  11)          116.0743         0.430978   
    373. A(C  33,C  26,C  37)          105.4669         0.437648   
    374. A(H  27,C  26,C  37)          127.2336         0.380463   
    375. A(H  27,C  26,C  33)          127.2994         0.393905   
    376. A(H  29,C  28,C  30)          119.4853         0.396955   
    377. A(C  22,C  28,C  30)          120.9887         0.432814   
    378. A(C  22,C  28,H  29)          119.5260         0.373653   
    379. A(C  28,C  30,H  31)          119.3112         0.396714   
    380. A(C  21,C  30,H  31)          119.3695         0.377299   
    381. A(C  21,C  30,C  28)          121.3192         0.437490   
    382. A(N  14,C  32,C  39)          121.4562         0.414779   
    383. A(N   9,C  32,C  39)          124.9841         0.439712   
    384. A(O   6,C  32,C  39)          118.8586         0.157572   
    385. A(O   6,C  32,N  14)           94.5174         0.154437   
    386. A(O   6,C  32,N   9)           54.7855         0.159446   
    387. A(N   9,C  32,N  14)          113.5435         0.423681   
    388. A(C  26,C  33,H  34)          126.4212         0.393832   
    389. A(N  14,C  33,H  34)          126.3931         0.383560   
    390. A(N  14,C  33,C  26)          107.1856         0.441437   
    391. A(H  36,C  35,C  39)          119.8326         0.390854   
    392. A(C  21,C  35,C  39)          120.2706         0.434385   
    393. A(C  21,C  35,H  36)          119.8967         0.380547   
    394. A(C  26,C  37,H  38)          124.6116         0.380324   
    395. A(N  17,C  37,H  38)          124.5737         0.390682   
    396. A(N  17,C  37,C  26)          110.8147         0.434128   
    397. A(C  35,C  39,H  40)          121.1500         0.390888   
    398. A(C  32,C  39,H  40)          121.1165         0.383965   
    399. A(C  32,C  39,C  35)          117.7335         0.438395   
    400. A(C  25,C  41,H  42)          120.8852         0.380309   
    401. A(C  23,C  41,H  42)          120.8810         0.392070   
    402. A(C  23,C  41,C  25)          118.2337         0.435486   
    403. A(H  44,C  43,C  47)          126.4174         0.393520   
    404. A(N  11,C  43,C  47)          107.1912         0.441516   
    405. A(N  11,C  43,H  44)          126.3914         0.384019   
    406. A(O   5,C  45,C  47)          157.2177         0.168865   
    407. A(O   5,C  45,H  46)           60.3267         0.158379   
    408. A(O   5,C  45,N  18)           68.7121         0.171134   
    409. A(H  46,C  45,C  47)          124.2689         0.382314   
    410. A(N  18,C  45,C  47)          111.3989         0.436237   
    411. A(N  18,C  45,H  46)          124.3322         0.390645   
    412. A(C  45,C  47,H  48)          127.3170         0.382183   
    413. A(C  43,C  47,H  48)          127.2522         0.393354   
    414. A(C  43,C  47,C  45)          105.4308         0.439513   
    415. D(N  12,O   1,Eu  0,O   2)    141.9779         0.010000   
    416. D(O   5,O   1,Eu  0,O   2)     14.3952         0.010000   
    417. D(N  12,O   1,Eu  0,O   4)   -124.2390         0.010000   
    418. D(N  15,O   2,Eu  0,O   4)      4.6773         0.010000   
    419. D(N  15,O   2,Eu  0,O   3)   -150.5096         0.010000   
    420. D(O   5,O   2,Eu  0,O   4)   -154.8086         0.010000   
    421. D(Eu  0,O   3,O   1,N  12)   -106.1271         0.010000   
    422. D(N  16,O   3,O   1,N  12)    147.0617         0.010000   
    423. D(O   6,O   3,Eu  0,O   2)    167.2199         0.010000   
    424. D(N  16,O   3,Eu  0,O   2)    -66.9333         0.010000   
    425. D(N  16,O   3,O   1,Eu  0)   -106.8112         0.010000   
    426. D(N  16,O   3,Eu  0,O   4)    -92.9362         0.010000   
    427. D(N  15,O   4,Eu  0,O   3)     28.6533         0.010000   
    428. D(N  15,O   4,Eu  0,O   2)     -4.7406         0.010000   
    429. D(N  17,O   4,Eu  0,O   2)    -83.2675         0.010000   
    430. D(N  16,O   5,Eu  0,O   4)    122.2621         0.010000   
    431. D(Eu  0,O   5,O   1,N  12)    -74.5817         0.010000   
    432. D(N  16,O   5,O   1,N  12)     19.1049         0.010000   
    433. D(Eu  0,O   5,O   2,N  15)    -40.6671         0.010000   
    434. D(N  16,O   5,Eu  0,O   2)    100.1627         0.010000   
    435. D(N  16,O   5,O   2,Eu  0)    -87.8189         0.010000   
    436. D(O   2,O   5,Eu  0,O   4)     22.0994         0.010000   
    437. D(N  16,O   5,O   1,Eu  0)     93.6866         0.010000   
    438. D(N  16,O   5,O   2,N  15)   -128.4860         0.010000   
    439. D(N  12,O   6,Eu  0,O   4)    138.5066         0.010000   
    440. D(N  12,O   6,O   3,Eu  0)     93.9383         0.010000   
    441. D(Eu  0,O   6,O   3,N  16)    -76.7317         0.010000   
    442. D(O   3,O   6,Eu  0,O   2)    -27.7195         0.010000   
    443. D(N  12,O   6,Eu  0,O   2)   -117.7487         0.010000   
    444. D(N  12,O   6,O   3,N  16)     17.2066         0.010000   
    445. D(C  20,N   9,Eu  0,O   2)    133.5412         0.010000   
    446. D(C  32,N   9,O   6,N  12)    173.0459         0.010000   
    447. D(C  20,N   9,O   6,Eu  0)    120.0180         0.010000   
    448. D(C  32,N   9,O   4,N  15)     57.0072         0.010000   
    449. D(C  20,N   9,O   4,Eu  0)   -105.2547         0.010000   
    450. D(C  20,N   9,O   4,N  15)   -161.7998         0.010000   
    451. D(C  32,N   9,Eu  0,O   2)    -64.4397         0.010000   
    452. D(C  20,N   9,Eu  0,O   4)    103.3081         0.010000   
    453. D(C  20,N   9,O   6,N  12)     53.9868         0.010000   
    454. D(C  19,N  10,O   4,N  15)    150.7340         0.010000   
    455. D(C  25,N  10,O   1,N  12)   -142.7031         0.010000   
    456. D(C  19,N  10,O   1,Eu  0)   -110.5140         0.010000   
    457. D(C  19,N  10,O   1,N  12)    -16.8171         0.010000   
    458. D(C  25,N  10,Eu  0,O   2)     61.1930         0.010000   
    459. D(C  19,N  10,O   4,Eu  0)    108.9520         0.010000   
    460. D(C  25,N  10,O   4,N  15)    -73.2566         0.010000   
    461. D(C  19,N  10,Eu  0,O   4)    -97.6250         0.010000   
    462. D(C  19,N  10,Eu  0,O   2)   -126.6535         0.010000   
    463. D(O   8,N  12,O   6,Eu  0)   -178.4347         0.093867   
    464. D(O   1,N  12,O   3,N  16)    -33.6118         0.010000   
    465. D(O   1,N  12,O   3,Eu  0)     59.6114         0.010000   
    466. D(O   1,N  12,O   6,Eu  0)      0.2001         0.093867   
    467. D(O   8,N  12,O   1,Eu  0)    178.4445         0.086098   
    468. D(O   1,N  12,O   6,O   3)    -52.5165         0.093867   
    469. D(O   6,N  12,O   1,O   5)     53.4694         0.086098   
    470. D(O   6,N  12,O   1,Eu  0)     -0.2084         0.086098   
    471. D(O   6,N  12,O   3,N  16)   -165.5525         0.010000   
    472. D(O   1,N  12,Eu  0,O   4)    104.2132         0.010000   
    473. D(O   1,N  12,Eu  0,O   2)    -67.5033         0.010000   
    474. D(O   6,N  12,Eu  0,O   2)    112.2814         0.010000   
    475. D(O   4,N  15,Eu  0,O   2)    171.5514         0.010000   
    476. D(O   2,N  15,Eu  0,O   3)     30.8014         0.010000   
    477. D(O   2,N  15,Eu  0,O   4)   -171.5514         0.010000   
    478. D(O   4,N  15,N  12,O   1)    104.0510         0.010000   
    479. D(O   2,N  15,N  12,O   1)    -67.4734         0.010000   
    480. D(O  13,N  15,O   4,Eu  0)   -171.4096         0.087909   
    481. D(O   2,N  15,O   4,N  17)     61.0323         0.087909   
    482. D(O   2,N  15,O   4,Eu  0)      7.9260         0.087909   
    483. D(O  13,N  15,O   2,Eu  0)    171.2478         0.077685   
    484. D(O   2,N  15,N  12,O   6)    112.5717         0.010000   
    485. D(O   4,N  15,O   2,O   5)     25.5680         0.077685   
    486. D(O   4,N  15,O   2,Eu  0)     -8.1029         0.077685   
    487. D(O   7,N  16,O   5,Eu  0)    179.4743         0.091981   
    488. D(O   3,N  16,O   5,O   2)     54.0800         0.091981   
    489. D(O   7,N  16,O   3,Eu  0)   -179.4761         0.087922   
    490. D(O   5,N  16,O   3,O   6)     55.2828         0.087922   
    491. D(O   3,N  16,O   5,Eu  0)      0.1290         0.091981   
    492. D(O   5,N  16,O   3,Eu  0)     -0.1348         0.087922   
    493. D(O   5,N  16,O   1,N  12)   -164.1172         0.010000   
    494. D(O   3,N  16,O   1,Eu  0)     58.4167         0.010000   
    495. D(O   3,N  16,O   1,N  12)    -33.8136         0.010000   
    496. D(O   5,N  16,Eu  0,O   2)    -71.5452         0.010000   
    497. D(O   3,N  16,Eu  0,O   4)    107.8280         0.010000   
    498. D(O   3,N  16,Eu  0,O   2)    108.5954         0.010000   
    499. D(C  37,N  17,N  15,O   2)     78.7146         0.010000   
    500. D(N  14,N  17,N  15,O   4)    -41.9788         0.010000   
    501. D(N  14,N  17,N  15,O   2)   -167.0031         0.010000   
    502. D(Eu  0,N  17,N  14,C  32)     -6.7055         0.037974   
    503. D(C  37,N  17,N  14,C  33)     -0.5744         0.037974   
    504. D(C  37,N  17,N  14,C  32)    177.4429         0.037974   
    505. D(C  37,N  17,O   4,N  15)     26.5434         0.010000   
    506. D(N  14,N  17,O   4,Eu  0)   -112.7901         0.010000   
    507. D(N  14,N  17,O   4,N  15)    146.7625         0.010000   
    508. D(C  37,N  17,O   3,N  16)    -84.7648         0.010000   
    509. D(N  14,N  17,O   3,Eu  0)     98.8858         0.010000   
    510. D(N  14,N  17,O   3,N  16)    159.8360         0.010000   
    511. D(C  37,N  17,O   2,N  15)   -102.1855         0.010000   
    512. D(N  14,N  17,O   2,Eu  0)    -80.7600         0.010000   
    513. D(N  14,N  17,O   2,N  15)     22.4110         0.010000   
    514. D(C  37,N  17,Eu  0,O   2)    -36.6541         0.010000   
    515. D(N  14,N  17,Eu  0,O   4)     94.3680         0.010000   
    516. D(N  14,N  17,Eu  0,O   2)    148.9330         0.010000   
    517. D(Eu  0,N  18,N  11,C  25)      0.1324         0.035842   
    518. D(C  45,N  18,N  11,C  25)   -176.6293         0.035842   
    519. D(C  45,N  18,O   5,N  16)    167.5867         0.010000   
    520. D(N  11,N  18,O   5,Eu  0)    -90.6394         0.010000   
    521. D(N  11,N  18,O   5,N  16)    -78.1064         0.010000   
    522. D(C  45,N  18,O   4,N  15)    -34.9655         0.010000   
    523. D(N  11,N  18,O   4,Eu  0)    115.6529         0.010000   
    524. D(N  11,N  18,O   4,N  15)   -151.0569         0.010000   
    525. D(C  45,N  18,O   2,N  15)    107.2878         0.010000   
    526. D(N  11,N  18,O   2,Eu  0)     83.8707         0.010000   
    527. D(N  11,N  18,O   2,N  15)    -12.4998         0.010000   
    528. D(C  45,N  18,O   1,N  12)    157.4879         0.010000   
    529. D(N  11,N  18,O   1,Eu  0)   -122.8310         0.010000   
    530. D(N  11,N  18,O   1,N  12)    -86.1920         0.010000   
    531. D(C  45,N  18,Eu  0,O   2)     34.4791         0.010000   
    532. D(C  45,N  18,N  11,C  43)     -1.0911         0.035842   
    533. D(N  11,N  18,Eu  0,O   4)    -87.5751         0.010000   
    534. D(N  11,N  18,Eu  0,O   2)   -141.0953         0.010000   
    535. D(C  22,C  19,N  10,C  25)      4.8972         0.037876   
    536. D(C  20,C  19,N  10,Eu  0)     14.1619         0.037876   
    537. D(C  20,C  19,N  10,C  25)   -173.4055         0.037876   
    538. D(C  19,C  20,N   9,C  32)    176.4859         0.038610   
    539. D(C  19,C  20,O   6,N  12)    -18.3043         0.010000   
    540. D(N   9,C  20,O   6,Eu  0)    -50.3334         0.010000   
    541. D(N   9,C  20,O   6,N  12)   -138.1119         0.010000   
    542. D(C  21,C  20,C  19,N  10)   -179.3176         0.021518   
    543. D(N   9,C  20,C  19,C  22)   -174.0341         0.021518   
    544. D(N   9,C  20,C  19,N  10)      4.3147         0.021518   
    545. D(C  21,C  20,N   9,C  32)      0.2614         0.038610   
    546. D(C  19,C  20,N   9,Eu  0)    -20.4992         0.038610   
    547. D(C  35,C  21,C  20,N   9)     -1.5542         0.024665   
    548. D(C  30,C  21,C  20,C  19)      0.9811         0.024665   
    549. D(C  30,C  21,C  20,N   9)    177.1257         0.024665   
    550. D(C  28,C  22,C  19,N  10)    177.6066         0.022874   
    551. D(C  23,C  22,C  19,C  20)    175.9862         0.022874   
    552. D(C  23,C  22,C  19,N  10)     -2.2773         0.022874   
    553. D(C  41,C  23,C  22,C  19)     -0.9458         0.022663   
    554. D(H  24,C  23,C  22,C  28)     -0.8534         0.022663   
    555. D(H  24,C  23,C  22,C  19)    179.0237         0.022663   
    556. D(C  41,C  25,N  11,N  18)   -171.9543         0.023252   
    557. D(N  10,C  25,N  11,C  43)   -167.3482         0.023252   
    558. D(N  10,C  25,N  11,N  18)      7.2478         0.023252   
    559. D(C  41,C  25,N  10,C  19)     -4.4064         0.052964   
    560. D(N  11,C  25,N  10,Eu  0)    -11.3370         0.052964   
    561. D(N  11,C  25,N  10,C  19)    176.4204         0.052964   
    562. D(C  30,C  28,C  22,C  19)      2.6766         0.018218   
    563. D(H  29,C  28,C  22,C  23)      2.5309         0.018218   
    564. D(H  29,C  28,C  22,C  19)   -177.3444         0.018218   
    565. D(H  31,C  30,C  28,C  22)   -179.2661         0.038014   
    566. D(C  21,C  30,C  28,H  29)   -179.3183         0.038014   
    567. D(C  21,C  30,C  28,C  22)      0.6607         0.038014   
    568. D(H  31,C  30,C  21,C  20)    177.4199         0.020593   
    569. D(C  28,C  30,C  21,C  35)    176.0791         0.020593   
    570. D(C  28,C  30,C  21,C  20)     -2.5068         0.020593   
    571. D(C  39,C  32,N  14,N  17)    173.6785         0.022409   
    572. D(N   9,C  32,N  14,C  33)    169.8992         0.022409   
    573. D(N   9,C  32,N  14,N  17)     -7.7165         0.022409   
    574. D(C  39,C  32,N   9,C  20)     -0.3152         0.051903   
    575. D(N  14,C  32,N   9,Eu  0)     18.8715         0.051903   
    576. D(N  14,C  32,N   9,C  20)   -178.8628         0.051903   
    577. D(N  14,C  32,O   6,N  12)   -127.7679         0.010000   
    578. D(N   9,C  32,O   6,Eu  0)     50.0688         0.010000   
    579. D(N   9,C  32,O   6,N  12)    -12.0032         0.010000   
    580. D(H  34,C  33,C  26,H  27)     -0.4635         0.034590   
    581. D(N  14,C  33,C  26,C  37)     -0.3722         0.034590   
    582. D(N  14,C  33,C  26,H  27)    179.6339         0.034590   
    583. D(H  34,C  33,N  14,N  17)   -179.2985         0.031633   
    584. D(C  26,C  33,N  14,C  32)   -177.1616         0.031633   
    585. D(C  26,C  33,N  14,N  17)      0.6042         0.031633   
    586. D(C  39,C  35,C  21,C  20)      2.9386         0.022728   
    587. D(H  36,C  35,C  21,C  30)      4.2579         0.022728   
    588. D(H  36,C  35,C  21,C  20)   -177.1243         0.022728   
    589. D(H  38,C  37,C  26,H  27)      0.0152         0.022629   
    590. D(N  17,C  37,C  26,C  33)      0.0271         0.022629   
    591. D(N  17,C  37,C  26,H  27)   -179.9790         0.022629   
    592. D(H  38,C  37,N  17,N  14)   -179.6687         0.052885   
    593. D(C  26,C  37,N  17,Eu  0)   -174.6927         0.052885   
    594. D(C  26,C  37,N  17,N  14)      0.3255         0.052885   
    595. D(H  40,C  39,C  35,C  21)    177.0078         0.031478   
    596. D(C  32,C  39,C  35,H  36)    177.0611         0.031478   
    597. D(C  32,C  39,C  35,C  21)     -3.0017         0.031478   
    598. D(H  40,C  39,C  32,N   9)   -178.3008         0.027484   
    599. D(C  35,C  39,C  32,N  14)   -179.8522         0.027484   
    600. D(C  35,C  39,C  32,N   9)      1.7087         0.027484   
    601. D(H  42,C  41,C  25,N  10)   -178.7155         0.022555   
    602. D(C  23,C  41,C  25,N  11)   -179.5718         0.022555   
    603. D(C  23,C  41,C  25,N  10)      1.2886         0.022555   
    604. D(H  42,C  41,C  23,C  22)   -178.5452         0.032704   
    605. D(C  25,C  41,C  23,H  24)   -178.5188         0.032704   
    606. D(C  25,C  41,C  23,C  22)      1.4507         0.032704   
    607. D(C  47,C  43,N  11,N  18)      0.7948         0.032059   
    608. D(H  44,C  43,N  11,C  25)     -4.2601         0.032059   
    609. D(H  44,C  43,N  11,N  18)   -179.1651         0.032059   
    610. D(C  47,C  45,N  18,N  11)      0.9733         0.055525   
    611. D(H  46,C  45,N  18,Eu  0)      4.8347         0.055525   
    612. D(H  46,C  45,N  18,N  11)   -179.1042         0.055525   
    613. D(H  46,C  45,O   5,N  16)    103.9512         0.010000   
    614. D(N  18,C  45,O   5,Eu  0)    -20.6546         0.010000   
    615. D(N  18,C  45,O   5,N  16)    -52.7786         0.010000   
    616. D(H  48,C  47,C  45,N  18)    179.5114         0.026105   
    617. D(C  43,C  47,C  45,H  46)    179.5531         0.026105   
    618. D(C  43,C  47,C  45,N  18)     -0.5243         0.026105   
    619. D(H  48,C  47,C  43,N  11)    179.7956         0.034201   
    620. D(C  45,C  47,C  43,H  44)    179.7911         0.034201   
    621. D(C  45,C  47,C  43,N  11)     -0.1688         0.034201   
    -----------------------------------------------------------------

Number of atoms                         .... 49
Number of degrees of freedom            .... 621


         *************************************************************
         *                GEOMETRY OPTIMIZATION CYCLE   1            *
         *************************************************************
---------------------------------
CARTESIAN COORDINATES (ANGSTROEM)
---------------------------------
  Eu     9.318010    7.810500    9.768600
  O     10.063890    8.345900   12.099620
  O      9.517940    5.953670    8.211380
  O     11.763500    7.947270    9.520270
  O      7.584110    6.934030    8.229220
  O     11.111040    6.155790   10.512220
  O     10.157540   10.043160   10.777010
  O     13.227170    6.485160   10.193920
  O     10.726120   10.271770   12.862440
  N      7.978050    9.930750    9.108670
  N      7.165640    8.323040   11.098060
  N      7.196180    6.171420   11.921260
  N     10.336610    9.580030   11.933600
  O      8.040190    5.454820    6.691210
  N      9.250580   10.117260    7.209830
  N      8.355210    6.094300    7.677680
  N     12.078900    6.847080   10.075920
  N      9.763380    8.890080    7.504810
  N      8.291990    5.937470   11.133730
  C      6.625120    9.566500   11.039060
  C      7.091600   10.442020   10.008700
  C      6.567650   11.750620    9.918140
  C      5.613090    9.996940   11.924000
  C      5.134380    9.056940   12.863820
  H      4.463200    9.307980   13.487890
  C      6.656350    7.462120   11.952810
  C     10.491660    9.594210    5.485230
  H     10.943670    9.606530    4.650130
  C      5.133420   11.352600   11.822470
  H      4.480170   11.665050   12.436620
  C      5.597760   12.182960   10.868940
  H      5.272650   13.075230   10.830360
  C      8.350280   10.726690    8.115340
  C      9.685970   10.559830    5.999730
  H      9.468530   11.389560    5.591480
  C      7.029180   12.552240    8.850730
  H      6.735870   13.452390    8.773420
  C     10.515510    8.567030    6.455230
  H     11.002350    7.755440    6.370070
  C      7.897980   12.036270    7.924640
  H      8.183380   12.550390    7.178820
  C      5.636680    7.786890   12.876160
  H      5.309390    7.139110   13.488950
  C      6.743360    5.026320   12.494750
  H      5.991800    4.942880   13.069420
  C      8.517310    4.630690   11.254470
  H      9.229170    4.168180   10.828310
  C      7.566910    4.021740   12.091380
  H      7.511140    3.102590   12.326640

----------------------------
CARTESIAN COORDINATES (A.U.)
----------------------------
  NO LB      ZA    FRAG     MASS         X           Y           Z
   0 Eu   63.0000    0   151.960   17.608487   14.759706   18.459979
   1 O     8.0000    0    15.999   19.017996   15.771465   22.864968
   2 O     8.0000    0    15.999   17.986300   11.250806   15.517259
   3 O     8.0000    0    15.999   22.229793   15.018164   17.990703
   4 O     8.0000    0    15.999   14.331891   13.103418   15.550972
   5 O     8.0000    0    15.999   20.996823   11.632757   19.865217
   6 O     8.0000    0    15.999   19.194969   18.978822   20.365597
   7 O     8.0000    0    15.999   24.995729   12.255176   19.263717
   8 O     8.0000    0    15.999   20.269429   19.410832   24.306489
   9 N     7.0000    0    14.007   15.076330   18.766398   17.212892
  10 N     7.0000    0    14.007   13.541097   15.728266   20.972294
  11 N     7.0000    0    14.007   13.598809   11.662294   22.527917
  12 N     7.0000    0    14.007   19.533362   18.103633   22.551236
  13 O     8.0000    0    15.999   15.193757   10.308116   12.644554
  14 N     7.0000    0    14.007   17.481063   19.118851   13.624604
  15 N     7.0000    0    14.007   15.789059   11.516558   14.508713
  16 N     7.0000    0    14.007   22.825813   12.939106   19.040729
  17 N     7.0000    0    14.007   18.450114   16.799817   14.182036
  18 N     7.0000    0    14.007   15.669590   11.220192   21.039701
  19 C     6.0000    0    12.011   12.519662   18.078065   20.860800
  20 C     6.0000    0    12.011   13.401182   19.732558   18.913702
  21 C     6.0000    0    12.011   12.411060   22.205454   18.742568
  22 C     6.0000    0    12.011   10.607203   18.891479   22.533094
  23 C     6.0000    0    12.011    9.702572   17.115136   24.309097
  24 H     1.0000    0     1.008    8.434226   17.589533   25.488418
  25 C     6.0000    0    12.011   12.578679   14.101363   22.587537
  26 C     6.0000    0    12.011   19.826364   18.130429   10.365582
  27 H     1.0000    0     1.008   20.680539   18.153711    8.787472
  28 C     6.0000    0    12.011    9.700758   21.453305   22.341231
  29 H     1.0000    0     1.008    8.466294   22.043750   23.501806
  30 C     6.0000    0    12.011   10.578233   23.022458   20.539320
  31 H     1.0000    0     1.008    9.963865   24.708604   20.466414
  32 C     6.0000    0    12.011   15.779742   20.270506   15.335770
  33 C     6.0000    0    12.011   18.303831   19.955187   11.337847
  34 H     1.0000    0     1.008   17.892929   21.523149   10.566366
  35 C     6.0000    0    12.011   13.283225   23.720296   16.725456
  36 H     1.0000    0     1.008   12.728950   25.421333   16.579361
  37 C     6.0000    0    12.011   19.871434   16.189340   12.198617
  38 H     1.0000    0     1.008   20.791428   14.655658   12.037688
  39 C     6.0000    0    12.011   14.925019   22.745254   14.975399
  40 H     1.0000    0     1.008   15.464347   23.716800   13.566004
  41 C     6.0000    0    12.011   10.651782   14.715090   24.332416
  42 H     1.0000    0     1.008   10.033293   13.490963   25.490421
  43 C     6.0000    0    12.011   12.743104    9.498368   23.611656
  44 H     1.0000    0     1.008   11.322861    9.340690   24.697625
  45 C     6.0000    0    12.011   16.095383    8.750736   21.267866
  46 H     1.0000    0     1.008   17.440604    7.876719   20.462540
  47 C     6.0000    0    12.011   14.299388    7.599987   22.849397
  48 H     1.0000    0     1.008   14.193998    5.863045   23.293974

--------------------------------
INTERNAL COORDINATES (ANGSTROEM)
--------------------------------
 Eu     0   0   0     0.000000000000     0.00000000     0.00000000
 O      1   0   0     2.505323207652     0.00000000     0.00000000
 O      1   2   0     2.431609298839   137.27030652     0.00000000
 O      1   2   3     2.461868225941    77.65737387   293.17556151
 O      3   1   2     2.168207200454    64.92045721   140.26619949
 O      4   1   2     2.149202048319    66.76973166    74.14663408
 O      2   1   3     2.153777853494    67.04479791   141.85947593
 O      6   4   1     2.165134098341    60.56946841   180.21162560
 O      7   2   1     2.173606227770    60.33549931   179.03042869
 N      1   2   3     2.593542070027   102.46591795   178.64701446
 N      1   2   3     2.581251200503    74.13367957   122.34507720
 N     11   1   2     2.303922645403    89.28594542   278.38277788
 N      9   7   2     1.221869883948    29.27619967     0.83243314
 O      3   1   2     2.177960792553   124.47917260   150.02505647
 N     10   1   2     2.293406184390    89.45487698   127.16428051
 N     14   3   1     1.217084767672    30.49348831   349.42565053
 N      8   6   4     1.209724794860    29.78863753   359.59885009
 N     15  10   1     1.362331748437    87.49698530     9.11168593
 N     12  11   1     1.369574992288    87.97573556   356.74666766
 C     11   1   2     1.357142454571   119.44856665    96.69351646
 C     10   1   2     1.362807622631   118.34063537   314.60397855
 C     21  10   1     1.412500858796   123.12730812   163.27630818
 C     20  11   1     1.411595592973   122.52559093   192.46458843
 C     23  20  11     1.412807452026   117.19817038   357.72273083
 H     24  23  20     0.950245778154   120.02855152   179.02367286
 C     11   1   2     1.315734438631   121.83199547   284.54004823
 C     15  10   1     2.188174131302   161.40867902    28.97977292
 H     27  15  10     0.949661430458   163.72468291   158.96733873
 C     23  20  11     1.441598309308   118.76068926   177.60657955
 H     29  23  20     0.949495017101   119.52602677   182.65558765
 C     29  23  20     1.346970239500   120.98870897     2.67663704
 H     31  29  23     0.950437100181   119.31120795   180.73392891
 C     10   1   2     1.326190086451   122.42672777   116.62303072
 C     27  15  10     1.358774672453    36.42723333   160.00644326
 H     34  27  15     0.949947413808   126.42120584   179.90261260
 C     22  21  10     1.412433599643   116.93896896   358.44582543
 H     36  22  21     0.949882947894   119.89674719   182.87573697
 C     18  15  10     1.331044332770   105.10486295   173.35718179
 H     38  18  15     0.950233518300   124.57374837   180.33131938
 C     36  22  21     1.370649907526   120.27058910     2.93861646
 H     40  36  22     0.949747338401   121.15004297   177.00780606
 C     24  23  20     1.365827429839   120.00558051   359.05418780
 H     42  24  23     0.949868020622   120.88102691   181.45477298
 C     12  11   1     1.358377982191   159.01822821   198.43931845
 H     44  12  11     0.949763273716   126.39139699   337.45336703
 C     19  12  11     1.331548428860   104.53037253   187.08349255
 H     46  19  12     0.949880258401   124.33215592   180.89584247
 C     44  12  11     1.360192242222   107.19121838   157.41328400
 H     48  44  12     0.950417951745   127.25217227   179.79560967

---------------------------
INTERNAL COORDINATES (A.U.)
---------------------------
 Eu     0   0   0     0.000000000000     0.00000000     0.00000000
 O      1   0   0     4.734374739420     0.00000000     0.00000000
 O      1   2   0     4.595075639502   137.27030652     0.00000000
 O      1   2   3     4.652256724832    77.65737387   293.17556151
 O      3   1   2     4.097317810454    64.92045721   140.26619949
 O      4   1   2     4.061403277786    66.76973166    74.14663408
 O      2   1   3     4.070050296408    67.04479791   141.85947593
 O      6   4   1     4.091510489079    60.56946841   180.21162560
 O      7   2   1     4.107520493471    60.33549931   179.03042869
 N      1   2   3     4.901084229154   102.46591795   178.64701446
 N      1   2   3     4.877857851807    74.13367957   122.34507720
 N     11   1   2     4.353782833551    89.28594542   278.38277788
 N      9   7   2     2.308999451949    29.27619967     0.83243314
 O      3   1   2     4.115749428344   124.47917260   150.02505647
 N     10   1   2     4.333909602339    89.45487698   127.16428051
 N     14   3   1     2.299956892668    30.49348831   349.42565053
 N      8   6   4     2.286048559700    29.78863753   359.59885009
 N     15  10   1     2.574433908092    87.49698530     9.11168593
 N     12  11   1     2.588121655291    87.97573556   356.74666766
 C     11   1   2     2.564627563858   119.44856665    96.69351646
 C     10   1   2     2.575333179992   118.34063537   314.60397855
 C     21  10   1     2.669239787053   123.12730812   163.27630818
 C     20  11   1     2.667529082569   122.52559093   192.46458843
 C     23  20  11     2.669819164292   117.19817038   357.72273083
 H     24  23  20     1.795704280626   120.02855152   179.02367286
 C     11   1   2     2.486377753981   121.83199547   284.54004823
 C     15  10   1     4.135049841492   161.40867902    28.97977292
 H     27  15  10     1.794600023514   163.72468291   158.96733873
 C     23  20  11     2.724225999716   118.76068926   177.60657955
 H     29  23  20     1.794285547844   119.52602677   182.65558765
 C     29  23  20     2.545404863198   120.98870897     2.67663704
 H     31  29  23     1.796065826860   119.31120795   180.73392891
 C     10   1   2     2.506136064913   122.42672777   116.62303072
 C     27  15  10     2.567712008645    36.42723333   160.00644326
 H     34  27  15     1.795140453723   126.42120584   179.90261260
 C     22  21  10     2.669112685674   116.93896896   358.44582543
 H     36  22  21     1.795018630802   119.89674719   182.87573697
 C     18  15  10     2.515309261044   105.10486295   173.35718179
 H     38  18  15     1.795681112859   124.57374837   180.33131938
 C     36  22  21     2.590152950708   120.27058910     2.93861646
 H     40  36  22     1.794762365999   121.15004297   177.00780606
 C     24  23  20     2.581039788593   120.00558051   359.05418780
 H     42  24  23     1.794990422345   120.88102691   181.45477298
 C     12  11   1     2.566962372689   159.01822821   198.43931845
 H     44  12  11     1.794792479380   126.39139699   337.45336703
 C     19  12  11     2.516261864599   104.53037253   187.08349255
 H     46  19  12     1.795013548396   124.33215592   180.89584247
 C     44  12  11     2.570390827283   107.19121838   157.41328400
 H     48  44  12     1.796029641561   127.25217227   179.79560967

---------------------
BASIS SET INFORMATION
---------------------
There are 5 groups of distinct atoms

 Group   1 Type Eu  : 23s16p12d6f contracted to 18s12p9d3f pattern {611111111111111111/511111111111/411111111/411}
 Group   2 Type O   : 11s6p2d1f contracted to 6s3p2d1f pattern {611111/411/11/1}
 Group   3 Type N   : 11s6p2d1f contracted to 6s3p2d1f pattern {611111/411/11/1}
 Group   4 Type C   : 11s6p2d1f contracted to 6s3p2d1f pattern {611111/411/11/1}
 Group   5 Type H   : 4s1p contracted to 2s1p pattern {31/1}

Atom   0Eu   basis set group =>   1
Atom   1O    basis set group =>   2
Atom   2O    basis set group =>   2
Atom   3O    basis set group =>   2
Atom   4O    basis set group =>   2
Atom   5O    basis set group =>   2
Atom   6O    basis set group =>   2
Atom   7O    basis set group =>   2
Atom   8O    basis set group =>   2
Atom   9N    basis set group =>   3
Atom  10N    basis set group =>   3
Atom  11N    basis set group =>   3
Atom  12N    basis set group =>   3
Atom  13O    basis set group =>   2
Atom  14N    basis set group =>   3
Atom  15N    basis set group =>   3
Atom  16N    basis set group =>   3
Atom  17N    basis set group =>   3
Atom  18N    basis set group =>   3
Atom  19C    basis set group =>   4
Atom  20C    basis set group =>   4
Atom  21C    basis set group =>   4
Atom  22C    basis set group =>   4
Atom  23C    basis set group =>   4
Atom  24H    basis set group =>   5
Atom  25C    basis set group =>   4
Atom  26C    basis set group =>   4
Atom  27H    basis set group =>   5
Atom  28C    basis set group =>   4
Atom  29H    basis set group =>   5
Atom  30C    basis set group =>   4
Atom  31H    basis set group =>   5
Atom  32C    basis set group =>   4
Atom  33C    basis set group =>   4
Atom  34H    basis set group =>   5
Atom  35C    basis set group =>   4
Atom  36H    basis set group =>   5
Atom  37C    basis set group =>   4
Atom  38H    basis set group =>   5
Atom  39C    basis set group =>   4
Atom  40H    basis set group =>   5
Atom  41C    basis set group =>   4
Atom  42H    basis set group =>   5
Atom  43C    basis set group =>   4
Atom  44H    basis set group =>   5
Atom  45C    basis set group =>   4
Atom  46H    basis set group =>   5
Atom  47C    basis set group =>   4
Atom  48H    basis set group =>   5
---------------------------------
AUXILIARY/J BASIS SET INFORMATION
---------------------------------
There are 5 groups of distinct atoms

 Group   1 Type Eu  : 33s10p8d5f4g2h contracted to 33s10p8d5f4g2h pattern {111111111111111111111111111111111/1111111111/11111111/11111/1111/11}
 Group   2 Type O   : 12s5p4d2f1g contracted to 12s5p4d2f1g pattern {111111111111/11111/1111/11/1}
 Group   3 Type N   : 12s5p4d2f1g contracted to 12s5p4d2f1g pattern {111111111111/11111/1111/11/1}
 Group   4 Type C   : 12s5p4d2f1g contracted to 12s5p4d2f1g pattern {111111111111/11111/1111/11/1}
 Group   5 Type H   : 5s2p1d contracted to 5s2p1d pattern {11111/11/1}

Atom   0Eu   basis set group =>   1
Atom   1O    basis set group =>   2
Atom   2O    basis set group =>   2
Atom   3O    basis set group =>   2
Atom   4O    basis set group =>   2
Atom   5O    basis set group =>   2
[...]
111:   1296.14   0.000134    0.67  0.000032  ( 0.003911 -0.003663 -0.001852)
112:   1337.76   0.001248    6.31  0.000291  (-0.010006  0.012305  0.006292)
113:   1342.19   0.012227   61.79  0.002843  ( 0.024285  0.024171 -0.040851)
114:   1347.92   0.021489  108.60  0.004975  ( 0.037942 -0.058512 -0.010572)
115:   1350.90   0.003285   16.60  0.000759  (-0.017242 -0.004404  0.021026)
116:   1379.94   0.008742   44.18  0.001977  (-0.014328 -0.028527  0.030948)
117:   1387.86   0.002830   14.30  0.000636  (-0.018132  0.016691  0.005380)
118:   1402.21   0.026666  134.76  0.005935  (-0.046393  0.059783  0.014436)
119:   1402.31   0.008598   43.45  0.001913  ( 0.030958 -0.001410 -0.030872)
120:   1406.20   0.004586   23.17  0.001018  (-0.003439 -0.028073  0.014755)
121:   1413.41   0.008751   44.22  0.001932  (-0.028429  0.030992  0.012784)
122:   1434.08   0.011023   55.70  0.002399  ( 0.014692  0.030448 -0.035435)
123:   1472.32   0.026158  132.19  0.005544  ( 0.042562 -0.055597 -0.025331)
124:   1482.31   0.053730  271.53  0.011312  ( 0.022445 -0.074289 -0.072725)
125:   1487.02   0.141592  715.55  0.029714  (-0.107942 -0.067572 -0.116176)
126:   1493.34   0.053823  272.00  0.011247  (-0.085724  0.059509  0.018903)
127:   1498.16   0.014436   72.96  0.003007  (-0.047057  0.028075 -0.002126)
128:   1505.84   0.030979  156.56  0.006420  ( 0.025075  0.050873 -0.056597)
129:   1516.39   0.015081   76.21  0.003104  ( 0.023009  0.027075 -0.042909)
130:   1527.02   0.024066  121.62  0.004918  ( 0.038951 -0.054782 -0.019998)
131:   1560.04   0.000729    3.69  0.000146  (-0.003361 -0.006603  0.009540)
132:   1587.46   0.010704   54.09  0.002104  (-0.028141  0.033633  0.013459)
133:   1603.42   0.012309   62.21  0.002396  (-0.016704 -0.031052  0.033947)
134:   1611.00   0.011113   56.16  0.002153  ( 0.028604 -0.033215 -0.015210)
135:   3099.93   0.000003    0.02  0.000000  ( 0.000330  0.000414 -0.000268)
136:   3109.59   0.000622    3.14  0.000062  (-0.005672  0.003176  0.004485)
137:   3109.92   0.000441    2.23  0.000044  (-0.001777  0.006081 -0.002017)
138:   3115.97   0.002489   12.58  0.000249  (-0.010493  0.010903  0.004507)
139:   3147.10   0.000402    2.03  0.000040  (-0.001654 -0.003451  0.005023)
140:   3148.94   0.000340    1.72  0.000034  ( 0.001857  0.004018 -0.003751)
141:   3184.90   0.000480    2.42  0.000047  ( 0.005297 -0.003155 -0.002998)
142:   3186.63   0.000221    1.12  0.000022  (-0.003341  0.003227  0.000236)
143:   3199.41   0.000351    1.77  0.000034  (-0.004207  0.003459  0.002137)
144:   3199.60   0.000379    1.92  0.000037  ( 0.004286 -0.004175 -0.001092)
145:   3215.81   0.000103    0.52  0.000010  ( 0.001398  0.000806 -0.002725)
146:   3216.90   0.000064    0.33  0.000006  ( 0.000026 -0.002022  0.001471)

* The epsilon (eps) is given for a Dirac delta lineshape.
** The dipole moment derivative (T) already includes vibrational overlap.

The first frequency considered to be a vibration is 6
The total number of vibrations considered is 141


--------------------------
THERMOCHEMISTRY AT 298.15K
--------------------------

Temperature         ...   298.15 K
Pressure            ...     1.00 atm
Total Mass          ...   650.31 AMU
Quasi RRHO          ...     True
Cut-Off Frequency   ...     1.00 cm^-1

Throughout the following assumptions are being made:
  (1) The electronic state is orbitally nondegenerate
      but the spin degeneracy is treated
  (2) There are no thermally accessible electronically excited states
  (3) Hindered rotations indicated by low frequency modes are not
      treated as such but are treated as vibrations and this may
      cause some error
  (4) All equations used are the standard statistical mechanics
      equations for an ideal gas
  (5) All vibrations are strictly harmonic

freq.      20.55  E(vib)   ...       0.56 
freq.      23.02  E(vib)   ...       0.56 
freq.      32.59  E(vib)   ...       0.55 
freq.      37.61  E(vib)   ...       0.54 
freq.      38.25  E(vib)   ...       0.54 
freq.      41.41  E(vib)   ...       0.54 
freq.      53.00  E(vib)   ...       0.52 
freq.      57.20  E(vib)   ...       0.51 
freq.      65.61  E(vib)   ...       0.50 
freq.      76.86  E(vib)   ...       0.49 
freq.      80.03  E(vib)   ...       0.49 
freq.      84.77  E(vib)   ...       0.48 
freq.      95.53  E(vib)   ...       0.47 
freq.     103.09  E(vib)   ...       0.46 
freq.     108.81  E(vib)   ...       0.45 
freq.     117.46  E(vib)   ...       0.44 
freq.     126.13  E(vib)   ...       0.43 
freq.     129.74  E(vib)   ...       0.43 
freq.     140.52  E(vib)   ...       0.41 
freq.     148.45  E(vib)   ...       0.41 
freq.     151.25  E(vib)   ...       0.40 
freq.     157.01  E(vib)   ...       0.40 
freq.     168.89  E(vib)   ...       0.38 
freq.     173.45  E(vib)   ...       0.38 
freq.     176.65  E(vib)   ...       0.38 
freq.     180.57  E(vib)   ...       0.37 
freq.     192.62  E(vib)   ...       0.36 
freq.     196.48  E(vib)   ...       0.36 
freq.     203.15  E(vib)   ...       0.35 
freq.     212.25  E(vib)   ...       0.34 
freq.     233.17  E(vib)   ...       0.32 
freq.     257.19  E(vib)   ...       0.30 
freq.     298.48  E(vib)   ...       0.26 
freq.     306.59  E(vib)   ...       0.26 
freq.     332.02  E(vib)   ...       0.24 
freq.     340.03  E(vib)   ...       0.23 
freq.     406.01  E(vib)   ...       0.19 
freq.     427.53  E(vib)   ...       0.18 
freq.     433.54  E(vib)   ...       0.17 
freq.     436.59  E(vib)   ...       0.17 
freq.     498.91  E(vib)   ...       0.14 
freq.     547.37  E(vib)   ...       0.12 
freq.     549.16  E(vib)   ...       0.12 
freq.     571.01  E(vib)   ...       0.11 
freq.     592.82  E(vib)   ...       0.10 
freq.     595.80  E(vib)   ...       0.10 
freq.     597.70  E(vib)   ...       0.10 
freq.     616.50  E(vib)   ...       0.09 
freq.     634.30  E(vib)   ...       0.09 
freq.     640.12  E(vib)   ...       0.09 
freq.     649.87  E(vib)   ...       0.08 
freq.     674.16  E(vib)   ...       0.08 
freq.     679.79  E(vib)   ...       0.08 
freq.     682.16  E(vib)   ...       0.08 
freq.     683.18  E(vib)   ...       0.08 
freq.     703.94  E(vib)   ...       0.07 
freq.     705.43  E(vib)   ...       0.07 
freq.     709.81  E(vib)   ...       0.07 
freq.     710.66  E(vib)   ...       0.07 
freq.     716.58  E(vib)   ...       0.07 
freq.     725.68  E(vib)   ...       0.06 
freq.     741.96  E(vib)   ...       0.06 
freq.     748.13  E(vib)   ...       0.06 
freq.     771.59  E(vib)   ...       0.05 
freq.     780.34  E(vib)   ...       0.05 
freq.     787.91  E(vib)   ...       0.05 
freq.     789.81  E(vib)   ...       0.05 
freq.     793.17  E(vib)   ...       0.05 
freq.     794.41  E(vib)   ...       0.05 
freq.     802.65  E(vib)   ...       0.05 
freq.     806.20  E(vib)   ...       0.05 
freq.     819.35  E(vib)   ...       0.05 
freq.     859.61  E(vib)   ...       0.04 
freq.     868.73  E(vib)   ...       0.04 
freq.     870.97  E(vib)   ...       0.04 
freq.     878.42  E(vib)   ...       0.04 
freq.     887.51  E(vib)   ...       0.04 
freq.     899.14  E(vib)   ...       0.03 
freq.     902.15  E(vib)   ...       0.03 
freq.     910.42  E(vib)   ...       0.03 
freq.     911.36  E(vib)   ...       0.03 
freq.     943.10  E(vib)   ...       0.03 
freq.     957.94  E(vib)   ...       0.03 
freq.    1006.58  E(vib)   ...       0.02 
freq.    1007.41  E(vib)   ...       0.02 
freq.    1015.95  E(vib)   ...       0.02 
freq.    1034.24  E(vib)   ...       0.02 
freq.    1039.31  E(vib)   ...       0.02 
freq.    1045.94  E(vib)   ...       0.02 
freq.    1049.31  E(vib)   ...       0.02 
freq.    1085.12  E(vib)   ...       0.02 
freq.    1096.71  E(vib)   ...       0.02 
freq.    1131.89  E(vib)   ...       0.01 
freq.    1134.51  E(vib)   ...       0.01 
freq.    1143.04  E(vib)   ...       0.01 
freq.    1146.09  E(vib)   ...       0.01 
freq.    1191.01  E(vib)   ...       0.01 
freq.    1194.68  E(vib)   ...       0.01 
freq.    1211.77  E(vib)   ...       0.01 
freq.    1215.91  E(vib)   ...       0.01 
freq.    1222.42  E(vib)   ...       0.01 
freq.    1223.84  E(vib)   ...       0.01 
freq.    1238.34  E(vib)   ...       0.01 
freq.    1242.27  E(vib)   ...       0.01 
freq.    1267.71  E(vib)   ...       0.01 
freq.    1296.14  E(vib)   ...       0.01 
freq.    1337.76  E(vib)   ...       0.01 
freq.    1342.19  E(vib)   ...       0.01 
freq.    1347.92  E(vib)   ...       0.01 
freq.    1350.90  E(vib)   ...       0.01 
freq.    1379.94  E(vib)   ...       0.01 
freq.    1387.86  E(vib)   ...       0.00 
freq.    1402.21  E(vib)   ...       0.00 
freq.    1402.31  E(vib)   ...       0.00 
freq.    1406.20  E(vib)   ...       0.00 
freq.    1413.41  E(vib)   ...       0.00 
freq.    1434.08  E(vib)   ...       0.00 
freq.    1472.32  E(vib)   ...       0.00 
freq.    1482.31  E(vib)   ...       0.00 
freq.    1487.02  E(vib)   ...       0.00 
freq.    1493.34  E(vib)   ...       0.00 
freq.    1498.16  E(vib)   ...       0.00 
freq.    1505.84  E(vib)   ...       0.00 
freq.    1516.39  E(vib)   ...       0.00 
freq.    1527.02  E(vib)   ...       0.00 
freq.    1560.04  E(vib)   ...       0.00 
freq.    1587.46  E(vib)   ...       0.00 
freq.    1603.42  E(vib)   ...       0.00 
freq.    1611.00  E(vib)   ...       0.00 
freq.    3099.93  E(vib)   ...       0.00 
freq.    3109.59  E(vib)   ...       0.00 
freq.    3109.92  E(vib)   ...       0.00 
freq.    3115.97  E(vib)   ...       0.00 
freq.    3147.10  E(vib)   ...       0.00 
freq.    3148.94  E(vib)   ...       0.00 
freq.    3184.90  E(vib)   ...       0.00 
freq.    3186.63  E(vib)   ...       0.00 
freq.    3199.41  E(vib)   ...       0.00 
freq.    3199.60  E(vib)   ...       0.00 
freq.    3215.81  E(vib)   ...       0.00 
freq.    3216.90  E(vib)   ...       0.00 

------------
INNER ENERGY
------------

The inner energy is: U= E(el) + E(ZPE) + E(vib) + E(rot) + E(trans)
    E(el)   - is the total energy from the electronic structure calculation
              = E(kin-el) + E(nuc-el) + E(el-el) + E(nuc-nuc)
    E(ZPE)  - the the zero temperature vibrational energy from the frequency calculation
    E(vib)  - the the finite temperature correction to E(ZPE) due to population
              of excited vibrational states
    E(rot)  - is the rotational thermal energy
    E(trans)- is the translational thermal energy

Summary of contributions to the inner energy U:
Electronic energy                ... -12941.26919336 Eh
Zero point energy                ...      0.31119312 Eh     195.28 kcal/mol
Thermal vibrational correction   ...      0.03034118 Eh      19.04 kcal/mol
Thermal rotational correction    ...      0.00141627 Eh       0.89 kcal/mol
Thermal translational correction ...      0.00141627 Eh       0.89 kcal/mol
-----------------------------------------------------------------------
Total thermal energy                 -12940.92482651 Eh


Summary of corrections to the electronic energy:
(perhaps to be used in another calculation)
Total thermal correction                  0.03317372 Eh      20.82 kcal/mol
Non-thermal (ZPE) correction              0.31119312 Eh     195.28 kcal/mol
-----------------------------------------------------------------------
Total correction                          0.34436684 Eh     216.09 kcal/mol


--------
ENTHALPY
--------

The enthalpy is H = U + kB*T
                kB is Boltzmann's constant
Total thermal energy              ... -12940.92482651 Eh 
Thermal Enthalpy correction       ...      0.00094421 Eh       0.59 kcal/mol
-----------------------------------------------------------------------
Total Enthalpy                    ... -12940.92388230 Eh


Note: Only C1 symmetry has been detected, increase convergence thresholds 
      if your molecule has a higher symmetry. Symmetry factor of 1.0 is   
      used for the rotational entropy correction. 
 

Note: Rotational entropy computed according to Herzberg 
Infrared and Raman Spectra, Chapter V,1, Van Nostrand Reinhold, 1945 
Point Group:  C1, Symmetry Number:   1  
Rotational constants in cm-1:     0.004128     0.003854     0.002762 

Vibrational entropy computed according to the QRRHO of S. Grimme
Chem.Eur.J. 2012 18 9955 using a reference frequency of 100.0 cm-1


-------
ENTROPY
-------

The entropy contributions are T*S = T*(S(el)+S(vib)+S(rot)+S(trans))
     S(el)   - electronic entropy
     S(vib)  - vibrational entropy
     S(rot)  - rotational entropy
     S(trans)- translational entropy
The entropies will be listed as multiplied by the temperature to get
units of energy

Electronic entropy                ...      0.00183729 Eh      1.15 kcal/mol
Vibrational entropy               ...      0.05588522 Eh     35.07 kcal/mol
Rotational entropy                ...      0.01750837 Eh     10.99 kcal/mol
Translational entropy             ...      0.02152289 Eh     13.51 kcal/mol
-----------------------------------------------------------------------
Final entropy term                ...      0.09675378 Eh     60.71 kcal/mol

In case the symmetry of your molecule has not been determined correctly
or in case you have a reason to use a different symmetry number we print 
out the resulting rotational entropy values for sn=1,12:

 non-linear molecules -----------------------------------
|  sn= 1 | S(rot)=       0.01750837 Eh     10.99 kcal/mol|
|  sn= 2 | S(rot)=       0.01685392 Eh     10.58 kcal/mol|
|  sn= 3 | S(rot)=       0.01647108 Eh     10.34 kcal/mol|
|  sn= 4 | S(rot)=       0.01619946 Eh     10.17 kcal/mol|
|  sn= 5 | S(rot)=       0.01598877 Eh     10.03 kcal/mol|
|  sn= 6 | S(rot)=       0.01581663 Eh      9.93 kcal/mol|
|  sn= 7 | S(rot)=       0.01567108 Eh      9.83 kcal/mol|
|  sn= 8 | S(rot)=       0.01554500 Eh      9.75 kcal/mol|
|  sn= 9 | S(rot)=       0.01543380 Eh      9.68 kcal/mol|
|  sn=10 | S(rot)=       0.01533432 Eh      9.62 kcal/mol|
|  sn=11 | S(rot)=       0.01524433 Eh      9.57 kcal/mol|
|  sn=12 | S(rot)=       0.01516217 Eh      9.51 kcal/mol|
 linear molecules ---------------------------------------
|  Dinfh | S(rot)=       0.01088890 Eh      6.83 kcal/mol|
|  Cinfv | S(rot)=       0.01154335 Eh      7.24 kcal/mol|
 --------------------------------------------------------


-------------------
GIBBS FREE ENERGY
-------------------

The Gibbs free energy is G = H - T*S

Total enthalpy                    ... -12940.92388230 Eh 
Total entropy correction          ...     -0.09675378 Eh    -60.71 kcal/mol
-----------------------------------------------------------------------
Final Gibbs free energy         ... -12941.02063608 Eh

For completeness - the Gibbs free energy minus the electronic energy
G-E(el)                           ...      0.24855728 Eh    155.97 kcal/mol


Maximum memory used throughout the entire PROP-calculation: 326.1 MB

--------------------------------
SUGGESTED CITATIONS FOR THIS RUN
--------------------------------

Below you find a list of papers that are relevant to this ORCA run
We neither can nor want to force you to cite these papers, but we appreciate if you do
You receive ORCA, which is the product of decades of hard work by many enthusiastic individuals, for free
The only thing we kindly ask in return is that you cite our papers,
We deeply appreciate it, if you show your appreciation for ORCA by not just citing the generic ORCA reference.

Please note that relegating all ORCA citations to the supporting information does *not* help us.
SI sections are not indexed - citations you put there will not count into any citation statistics
But we need these citations in order to attract the funding resources that allow us to do what we are doing

Therefore, if you are a happy ORCA user, please consider citing a few of the papers listed below in the main body of your paper

In addition to the list printed below, the program has created the file eu_freq.bibtex that contains the list in bibtex format
You can import this file easily into all common literature databanks and citation aid programs


List of essential papers. We consider these as the minimum necessary citations

  1. Neese, F.
     Software update: the ORCA program system, version 6.0
     WIRES Comput. Molec. Sci. 2025 15(1), e70019
     doi.org/10.1002/wcms.7019

List of papers to cite with high priority. The work reported in these papers was absolutely
necessary for this run to complete.
Our perspective: the developers of density functionals and basis sets usually get cited in chemistry papers
Good! But without the algorithms to do something with them, the functionals or basis sets would not do anything.
Hence, in our opinion, the algorithm design and method developments papers are equally worthy of getting cited

  1. Neese, F.
     An improvement of the resolution of the identity approximation for the formation of the Coulomb matrix
     J. Comp. Chem. 2003 24(14), 1740-1747
     doi.org/10.1002/jcc.10318
  2. Bykov, D.; Petrenko, T.; Izsak, R.; Kossmann, S.; Becker, U.; Valeev, E.; Neese, F.
     Efficient implementation of the analytic second derivatives of Hartree-Fock and hybrid DFT energies: a detailed analysis of different approximations
     Molec. Phys. 2015 113 , 1961-1977
     doi.org/10.1080/00268976.2015.1025114
  3. Helmich-Paris, B.
     A trust-region augmented Hessian implementation for restricted and unrestricted Hartree–Fock and Kohn–Sham methods
     J. Chem. Phys. 2021 154 , 164104
     doi.org/10.1063/5.0040798
  4. Neese, F.
     The SHARK Integral Generation and Digestion System
     J. Comp. Chem. 2022 44(3), 381
     doi.org/10.1002/jcc.26942

List of suggested additional citations. These are papers that are important in the 'surrounding' of 
of this run, or papers that preceded the highly important papers. If you like your results we are grateful for a citation.

  1. Neese, F.
     The ORCA program system
     WIRES Comput. Molec. Sci. 2012 2(1), 73-78
     doi.org/10.1002/wcms.81
  2. Neese, F.
     Software update: the ORCA program system, version 4.0
     WIRES Comput. Molec. Sci. 2018 8(1), 1-6
     doi.org/10.1002/wcms.1327
  3. Neese, F.; Wennmohs, F.; Becker, U.; Riplinger, C.
     The ORCA quantum chemistry program package
     J. Chem. Phys. 2020 152(22), 224108
     doi.org/10.1063/5.0004608
  4. Neese, F.
     Software update: The ORCA program system—Version 5.0
     WIRES Comput. Molec. Sci. 2022 12(1), e1606
     doi.org/10.1002/wcms.1606

List of optional additional citations

  1. Neese, F.
     Approximate second-order SCF convergence for spin unrestricted wavefunctions
     Chem. Phys. Lett. 2000 325(1-3), 93-98
     doi.org/10.1016/s0009-2614(00)00662-x

Timings for individual modules:

Sum of individual times          ...    17340.221 sec (= 289.004 min)
Startup calculation              ...      212.589 sec (=   3.543 min)   1.2 %
Relativistic integrals           ...       25.244 sec (=   0.421 min)   0.1 %
SCF iterations                   ...     7976.122 sec (= 132.935 min)  46.0 %
Property integrals               ...     1743.125 sec (=  29.052 min)  10.1 %
SCF Response                     ...     5556.825 sec (=  92.614 min)  32.0 %
Property calculations            ...      561.467 sec (=   9.358 min)   3.2 %
SCF Gradient evaluation          ...     1259.333 sec (=  20.989 min)   7.3 %
Geometry relaxation              ...        5.515 sec (=   0.092 min)   0.0 %
                             ****ORCA TERMINATED NORMALLY****
TOTAL RUN TIME: 0 days 4 hours 49 minutes 39 seconds 559 msec

